<?xml version="1.0" encoding="UTF-8"?>

<!-- generated on 2022-08-21 12:09:08 by Eclipse SUMO sumo Version 1.13.0
<configuration xmlns:xsi="http://www.w3.org/2001/XMLSchema-instance" xsi:noNamespaceSchemaLocation="http://sumo.dlr.de/xsd/sumoConfiguration.xsd">

    <input>
        <net-file value="/home/pc10/sumo_workplace/DDPG2/rou_net/intersection.net.xml"/>
        <route-files value="/home/pc10/sumo_workplace/DDPG2/rou_net/intersection100.rou.xml"/>
    </input>

    <output>
        <tripinfo-output value="/home/pc10/sumo_workplace/DDPG2/rou_net/tripinfo.xml"/>
    </output>

    <time>
        <begin value="0"/>
        <end value="3600"/>
        <step-length value="1"/>
    </time>

    <processing>
        <waiting-time-memory value="3600"/>
    </processing>

    <report>
        <no-step-log value="true"/>
    </report>

    <traci_server>
        <remote-port value="42305"/>
    </traci_server>

    <gui_only>
        <tracker-interval value="1"/>
    </gui_only>

</configuration>
-->

<tripinfos xmlns:xsi="http://www.w3.org/2001/XMLSchema-instance" xsi:noNamespaceSchemaLocation="http://sumo.dlr.de/xsd/tripinfo_file.xsd">
    <tripinfo id="W2E_1" depart="33.00" departLane="WE_0" departPos="5.00" departSpeed="10.00" departDelay="0.00" arrival="78.00" arrivalLane="-EW_0" arrivalPos="250.00" arrivalSpeed="13.79" duration="45.00" routeLength="509.40" waitingTime="0.00" waitingCount="0" stopTime="0.00" timeLoss="19.09" rerouteNo="0" devices="tripinfo_W2E_1" vType="ego_car" speedFactor="1.06" vaporized=""/>
    <tripinfo id="W2E_2" depart="73.00" departLane="WE_0" departPos="5.00" departSpeed="10.00" departDelay="0.00" arrival="140.00" arrivalLane="-EW_0" arrivalPos="250.00" arrivalSpeed="13.79" duration="67.00" routeLength="509.40" waitingTime="0.00" waitingCount="0" stopTime="0.00" timeLoss="39.25" rerouteNo="0" devices="tripinfo_W2E_2" vType="ego_car" speedFactor="0.94" vaporized=""/>
    <tripinfo id="E2W_4" depart="111.00" departLane="EW_0" departPos="5.00" departSpeed="10.00" departDelay="0.00" arrival="153.00" arrivalLane="-WE_0" arrivalPos="250.00" arrivalSpeed="13.79" duration="42.00" routeLength="509.40" waitingTime="0.00" waitingCount="0" stopTime="0.00" timeLoss="16.18" rerouteNo="0" devices="tripinfo_E2W_4" vType="ego_car" speedFactor="1.08" vaporized=""/>
    <tripinfo id="S2N_3" depart="88.00" departLane="SN_0" departPos="5.00" departSpeed="10.00" departDelay="0.00" arrival="170.00" arrivalLane="-NS_0" arrivalPos="250.00" arrivalSpeed="13.79" duration="82.00" routeLength="509.40" waitingTime="0.00" waitingCount="0" stopTime="0.00" timeLoss="56.53" rerouteNo="0" devices="tripinfo_S2N_3" vType="ego_car" speedFactor="1.01" vaporized=""/>
    <tripinfo id="E2W_5" depart="120.00" departLane="EW_0" departPos="5.00" departSpeed="10.00" departDelay="0.00" arrival="215.00" arrivalLane="-WE_0" arrivalPos="250.00" arrivalSpeed="13.79" duration="95.00" routeLength="509.40" waitingTime="1.00" waitingCount="1" stopTime="0.00" timeLoss="69.44" rerouteNo="0" devices="tripinfo_E2W_5" vType="ego_car" speedFactor="1.03" vaporized=""/>
    <tripinfo id="S2N_6" depart="169.00" departLane="SN_0" departPos="5.00" departSpeed="10.00" departDelay="0.00" arrival="241.00" arrivalLane="-NS_0" arrivalPos="250.00" arrivalSpeed="13.79" duration="72.00" routeLength="509.40" waitingTime="0.00" waitingCount="0" stopTime="0.00" timeLoss="40.88" rerouteNo="0" devices="tripinfo_S2N_6" vType="ego_car" speedFactor="0.83" vaporized=""/>
    <tripinfo id="S2N_9" depart="205.00" departLane="SN_0" departPos="5.00" departSpeed="10.00" departDelay="0.00" arrival="247.00" arrivalLane="-NS_0" arrivalPos="250.00" arrivalSpeed="13.78" duration="42.00" routeLength="509.40" waitingTime="0.00" waitingCount="0" stopTime="0.00" timeLoss="14.77" rerouteNo="0" devices="tripinfo_S2N_9" vType="ego_car" speedFactor="0.94" vaporized=""/>
    <tripinfo id="N2S_10" depart="216.00" departLane="NS_0" departPos="5.00" departSpeed="10.00" departDelay="0.00" arrival="252.00" arrivalLane="-SN_0" arrivalPos="250.00" arrivalSpeed="13.80" duration="36.00" routeLength="509.40" waitingTime="0.00" waitingCount="0" stopTime="0.00" timeLoss="6.09" rerouteNo="0" devices="tripinfo_N2S_10" vType="ego_car" speedFactor="0.86" vaporized=""/>
    <tripinfo id="E2W_7" depart="173.00" departLane="EW_0" departPos="5.00" departSpeed="10.00" departDelay="0.00" arrival="261.00" arrivalLane="-WE_0" arrivalPos="250.00" arrivalSpeed="13.79" duration="88.00" routeLength="509.40" waitingTime="16.00" waitingCount="1" stopTime="0.00" timeLoss="62.05" rerouteNo="0" devices="tripinfo_E2W_7" vType="ego_car" speedFactor="1.05" vaporized=""/>
    <tripinfo id="E2W_8" depart="200.00" departLane="EW_0" departPos="5.00" departSpeed="10.00" departDelay="0.00" arrival="268.00" arrivalLane="-WE_0" arrivalPos="250.00" arrivalSpeed="13.78" duration="68.00" routeLength="509.40" waitingTime="0.00" waitingCount="0" stopTime="0.00" timeLoss="38.52" rerouteNo="0" devices="tripinfo_E2W_8" vType="ego_car" speedFactor="0.89" vaporized=""/>
    <tripinfo id="E2W_12" depart="224.00" departLane="EW_0" departPos="5.00" departSpeed="10.00" departDelay="0.00" arrival="270.00" arrivalLane="-WE_0" arrivalPos="250.00" arrivalSpeed="13.49" duration="46.00" routeLength="509.40" waitingTime="0.00" waitingCount="0" stopTime="0.00" timeLoss="20.37" rerouteNo="0" devices="tripinfo_E2W_12" vType="ego_car" speedFactor="1.03" vaporized=""/>
    <tripinfo id="E2W_15" depart="229.00" departLane="EW_0" departPos="5.00" departSpeed="10.00" departDelay="0.00" arrival="274.00" arrivalLane="-WE_0" arrivalPos="250.00" arrivalSpeed="13.66" duration="45.00" routeLength="509.40" waitingTime="0.00" waitingCount="0" stopTime="0.00" timeLoss="19.18" rerouteNo="0" devices="tripinfo_E2W_15" vType="ego_car" speedFactor="0.99" vaporized=""/>
    <tripinfo id="W2E_11" depart="218.00" departLane="WE_0" departPos="5.00" departSpeed="10.00" departDelay="0.00" arrival="279.00" arrivalLane="-EW_0" arrivalPos="250.00" arrivalSpeed="13.79" duration="61.00" routeLength="509.40" waitingTime="0.00" waitingCount="0" stopTime="0.00" timeLoss="35.13" rerouteNo="0" devices="tripinfo_W2E_11" vType="ego_car" speedFactor="1.09" vaporized=""/>
    <tripinfo id="W2E_14" depart="228.00" departLane="WE_0" departPos="5.00" departSpeed="10.00" departDelay="0.00" arrival="284.00" arrivalLane="-EW_0" arrivalPos="250.00" arrivalSpeed="13.75" duration="56.00" routeLength="509.40" waitingTime="0.00" waitingCount="0" stopTime="0.00" timeLoss="30.01" rerouteNo="0" devices="tripinfo_W2E_14" vType="ego_car" speedFactor="1.12" vaporized=""/>
    <tripinfo id="N2S_13" depart="227.00" departLane="NS_0" departPos="5.00" departSpeed="10.00" departDelay="0.00" arrival="314.00" arrivalLane="-SN_0" arrivalPos="250.00" arrivalSpeed="13.79" duration="87.00" routeLength="509.40" waitingTime="0.00" waitingCount="0" stopTime="0.00" timeLoss="61.01" rerouteNo="0" devices="tripinfo_N2S_13" vType="ego_car" speedFactor="1.05" vaporized=""/>
    <tripinfo id="S2N_17" depart="253.00" departLane="SN_0" departPos="5.00" departSpeed="10.00" departDelay="0.00" arrival="316.00" arrivalLane="-NS_0" arrivalPos="250.00" arrivalSpeed="13.79" duration="63.00" routeLength="509.40" waitingTime="0.00" waitingCount="0" stopTime="0.00" timeLoss="33.81" rerouteNo="0" devices="tripinfo_S2N_17" vType="ego_car" speedFactor="0.88" vaporized=""/>
    <tripinfo id="N2S_16" depart="245.00" departLane="NS_0" departPos="5.00" departSpeed="10.00" departDelay="0.00" arrival="317.00" arrivalLane="-SN_0" arrivalPos="250.00" arrivalSpeed="13.61" duration="72.00" routeLength="509.40" waitingTime="0.00" waitingCount="0" stopTime="0.00" timeLoss="44.06" rerouteNo="0" devices="tripinfo_N2S_16" vType="ego_car" speedFactor="0.93" vaporized=""/>
    <tripinfo id="W2E_19" depart="281.00" departLane="WE_0" departPos="5.00" departSpeed="10.00" departDelay="0.00" arrival="350.00" arrivalLane="-EW_0" arrivalPos="250.00" arrivalSpeed="13.79" duration="69.00" routeLength="509.40" waitingTime="0.00" waitingCount="0" stopTime="0.00" timeLoss="41.53" rerouteNo="0" devices="tripinfo_W2E_19" vType="ego_car" speedFactor="0.94" vaporized=""/>
    <tripinfo id="E2W_20" depart="284.00" departLane="EW_0" departPos="5.00" departSpeed="10.00" departDelay="0.00" arrival="350.00" arrivalLane="-WE_0" arrivalPos="250.00" arrivalSpeed="13.79" duration="66.00" routeLength="509.40" waitingTime="0.00" waitingCount="0" stopTime="0.00" timeLoss="40.24" rerouteNo="0" devices="tripinfo_E2W_20" vType="ego_car" speedFactor="1.16" vaporized=""/>
    <tripinfo id="S2N_18" depart="281.00" departLane="SN_0" departPos="5.00" departSpeed="10.00" departDelay="0.00" arrival="363.00" arrivalLane="-NS_0" arrivalPos="250.00" arrivalSpeed="13.79" duration="82.00" routeLength="509.40" waitingTime="4.00" waitingCount="1" stopTime="0.00" timeLoss="54.40" rerouteNo="0" devices="tripinfo_S2N_18" vType="ego_car" speedFactor="0.94" vaporized=""/>
    <tripinfo id="S2N_21" depart="286.00" departLane="SN_0" departPos="5.00" departSpeed="10.00" departDelay="0.00" arrival="370.00" arrivalLane="-NS_0" arrivalPos="250.00" arrivalSpeed="13.78" duration="84.00" routeLength="509.40" waitingTime="0.00" waitingCount="0" stopTime="0.00" timeLoss="57.85" rerouteNo="0" devices="tripinfo_S2N_21" vType="ego_car" speedFactor="1.02" vaporized=""/>
    <tripinfo id="N2S_25" depart="315.00" departLane="NS_0" departPos="5.00" departSpeed="10.00" departDelay="0.00" arrival="380.00" arrivalLane="-SN_0" arrivalPos="250.00" arrivalSpeed="13.79" duration="65.00" routeLength="509.40" waitingTime="0.00" waitingCount="0" stopTime="0.00" timeLoss="33.71" rerouteNo="0" devices="tripinfo_N2S_25" vType="ego_car" speedFactor="0.83" vaporized=""/>
    <tripinfo id="S2N_28" depart="347.00" departLane="SN_0" departPos="5.00" departSpeed="10.00" departDelay="0.00" arrival="388.00" arrivalLane="-NS_0" arrivalPos="250.00" arrivalSpeed="13.79" duration="41.00" routeLength="509.40" waitingTime="0.00" waitingCount="0" stopTime="0.00" timeLoss="13.47" rerouteNo="0" devices="tripinfo_S2N_28" vType="ego_car" speedFactor="0.95" vaporized=""/>
    <tripinfo id="W2E_22" depart="302.00" departLane="WE_0" departPos="5.00" departSpeed="10.00" departDelay="0.00" arrival="397.00" arrivalLane="-EW_0" arrivalPos="250.00" arrivalSpeed="13.79" duration="95.00" routeLength="509.40" waitingTime="25.00" waitingCount="1" stopTime="0.00" timeLoss="69.11" rerouteNo="0" devices="tripinfo_W2E_22" vType="ego_car" speedFactor="1.01" vaporized=""/>
    <tripinfo id="E2W_23" depart="304.00" departLane="EW_0" departPos="5.00" departSpeed="10.00" departDelay="0.00" arrival="397.00" arrivalLane="-WE_0" arrivalPos="250.00" arrivalSpeed="13.79" duration="93.00" routeLength="509.40" waitingTime="16.00" waitingCount="1" stopTime="0.00" timeLoss="66.33" rerouteNo="0" devices="tripinfo_E2W_23" vType="ego_car" speedFactor="0.97" vaporized=""/>
    <tripinfo id="E2W_24" depart="306.00" departLane="EW_0" departPos="5.00" departSpeed="10.00" departDelay="2.00" arrival="399.00" arrivalLane="-WE_0" arrivalPos="250.00" arrivalSpeed="13.46" duration="93.00" routeLength="509.40" waitingTime="14.00" waitingCount="2" stopTime="0.00" timeLoss="64.14" rerouteNo="0" devices="tripinfo_E2W_24" vType="ego_car" speedFactor="0.89" vaporized=""/>
    <tripinfo id="E2W_26" depart="322.00" departLane="EW_0" departPos="5.00" departSpeed="10.00" departDelay="0.00" arrival="402.00" arrivalLane="-WE_0" arrivalPos="250.00" arrivalSpeed="13.53" duration="80.00" routeLength="509.40" waitingTime="0.00" waitingCount="0" stopTime="0.00" timeLoss="50.72" rerouteNo="0" devices="tripinfo_E2W_26" vType="ego_car" speedFactor="0.87" vaporized=""/>
    <tripinfo id="W2E_27" depart="324.00" departLane="WE_0" departPos="5.00" departSpeed="10.00" departDelay="0.00" arrival="403.00" arrivalLane="-EW_0" arrivalPos="250.00" arrivalSpeed="13.78" duration="79.00" routeLength="509.40" waitingTime="0.00" waitingCount="0" stopTime="0.00" timeLoss="51.11" rerouteNo="0" devices="tripinfo_W2E_27" vType="ego_car" speedFactor="0.92" vaporized=""/>
    <tripinfo id="S2N_29" depart="355.00" departLane="SN_0" departPos="5.00" departSpeed="10.00" departDelay="0.00" arrival="446.00" arrivalLane="-NS_0" arrivalPos="250.00" arrivalSpeed="13.79" duration="91.00" routeLength="509.40" waitingTime="0.00" waitingCount="0" stopTime="0.00" timeLoss="64.97" rerouteNo="0" devices="tripinfo_S2N_29" vType="ego_car" speedFactor="1.13" vaporized=""/>
    <tripinfo id="N2S_30" depart="376.00" departLane="NS_0" departPos="5.00" departSpeed="10.00" departDelay="0.00" arrival="448.00" arrivalLane="-SN_0" arrivalPos="250.00" arrivalSpeed="13.79" duration="72.00" routeLength="509.40" waitingTime="0.00" waitingCount="0" stopTime="0.00" timeLoss="44.19" rerouteNo="0" devices="tripinfo_N2S_30" vType="ego_car" speedFactor="0.93" vaporized=""/>
    <tripinfo id="S2N_31" depart="384.00" departLane="SN_0" departPos="5.00" departSpeed="10.00" departDelay="0.00" arrival="450.00" arrivalLane="-NS_0" arrivalPos="250.00" arrivalSpeed="13.72" duration="66.00" routeLength="509.40" waitingTime="0.00" waitingCount="0" stopTime="0.00" timeLoss="40.50" rerouteNo="0" devices="tripinfo_S2N_31" vType="ego_car" speedFactor="1.18" vaporized=""/>
    <tripinfo id="S2N_32" depart="394.00" departLane="SN_0" departPos="5.00" departSpeed="10.00" departDelay="0.00" arrival="455.00" arrivalLane="-NS_0" arrivalPos="250.00" arrivalSpeed="13.74" duration="61.00" routeLength="509.40" waitingTime="1.00" waitingCount="1" stopTime="0.00" timeLoss="35.45" rerouteNo="0" devices="tripinfo_S2N_32" vType="ego_car" speedFactor="1.15" vaporized=""/>
    <tripinfo id="E2W_36" depart="420.00" departLane="EW_0" departPos="5.00" departSpeed="10.00" departDelay="0.00" arrival="485.00" arrivalLane="-WE_0" arrivalPos="250.00" arrivalSpeed="13.79" duration="65.00" routeLength="509.40" waitingTime="0.00" waitingCount="0" stopTime="0.00" timeLoss="39.19" rerouteNo="0" devices="tripinfo_E2W_36" vType="ego_car" speedFactor="1.02" vaporized=""/>
    <tripinfo id="E2W_37" depart="427.00" departLane="EW_0" departPos="5.00" departSpeed="10.00" departDelay="0.00" arrival="489.00" arrivalLane="-WE_0" arrivalPos="250.00" arrivalSpeed="13.71" duration="62.00" routeLength="509.40" waitingTime="1.00" waitingCount="1" stopTime="0.00" timeLoss="35.66" rerouteNo="0" devices="tripinfo_E2W_37" vType="ego_car" speedFactor="0.97" vaporized=""/>
    <tripinfo id="W2E_40" depart="448.00" departLane="WE_0" departPos="5.00" departSpeed="10.00" departDelay="0.00" arrival="492.00" arrivalLane="-EW_0" arrivalPos="250.00" arrivalSpeed="13.79" duration="44.00" routeLength="509.40" waitingTime="0.00" waitingCount="0" stopTime="0.00" timeLoss="14.96" rerouteNo="0" devices="tripinfo_W2E_40" vType="ego_car" speedFactor="0.90" vaporized=""/>
    <tripinfo id="S2N_33" depart="397.00" departLane="SN_0" departPos="5.00" departSpeed="10.00" departDelay="0.00" arrival="499.00" arrivalLane="-NS_0" arrivalPos="250.00" arrivalSpeed="13.79" duration="102.00" routeLength="509.40" waitingTime="38.00" waitingCount="3" stopTime="0.00" timeLoss="75.99" rerouteNo="0" devices="tripinfo_S2N_33" vType="ego_car" speedFactor="1.01" vaporized=""/>
    <tripinfo id="S2N_34" depart="405.00" departLane="SN_0" departPos="5.00" departSpeed="10.00" departDelay="0.00" arrival="501.00" arrivalLane="-NS_0" arrivalPos="250.00" arrivalSpeed="13.46" duration="96.00" routeLength="509.40" waitingTime="29.00" waitingCount="3" stopTime="0.00" timeLoss="70.32" rerouteNo="0" devices="tripinfo_S2N_34" vType="ego_car" speedFactor="1.17" vaporized=""/>
    <tripinfo id="S2N_35" depart="407.00" departLane="SN_0" departPos="5.00" departSpeed="10.00" departDelay="0.00" arrival="504.00" arrivalLane="-NS_0" arrivalPos="250.00" arrivalSpeed="13.48" duration="97.00" routeLength="509.40" waitingTime="26.00" waitingCount="1" stopTime="0.00" timeLoss="70.91" rerouteNo="0" devices="tripinfo_S2N_35" vType="ego_car" speedFactor="0.99" vaporized=""/>
    <tripinfo id="S2N_41" depart="453.00" departLane="SN_0" departPos="5.00" departSpeed="10.00" departDelay="0.00" arrival="506.00" arrivalLane="-NS_0" arrivalPos="250.00" arrivalSpeed="13.35" duration="53.00" routeLength="509.40" waitingTime="0.00" waitingCount="0" stopTime="0.00" timeLoss="27.44" rerouteNo="0" devices="tripinfo_S2N_41" vType="ego_car" speedFactor="1.03" vaporized=""/>
    <tripinfo id="N2S_38" depart="434.00" departLane="NS_0" departPos="5.00" departSpeed="10.00" departDelay="0.00" arrival="514.00" arrivalLane="-SN_0" arrivalPos="250.00" arrivalSpeed="13.79" duration="80.00" routeLength="509.40" waitingTime="0.00" waitingCount="0" stopTime="0.00" timeLoss="54.06" rerouteNo="0" devices="tripinfo_N2S_38" vType="ego_car" speedFactor="1.18" vaporized=""/>
    <tripinfo id="E2W_39" depart="439.00" departLane="EW_0" departPos="5.00" departSpeed="10.00" departDelay="0.00" arrival="533.00" arrivalLane="-WE_0" arrivalPos="250.00" arrivalSpeed="13.79" duration="94.00" routeLength="509.40" waitingTime="37.00" waitingCount="2" stopTime="0.00" timeLoss="67.99" rerouteNo="0" devices="tripinfo_E2W_39" vType="ego_car" speedFactor="1.10" vaporized=""/>
    <tripinfo id="E2W_42" depart="455.00" departLane="EW_0" departPos="5.00" departSpeed="10.00" departDelay="0.00" arrival="535.00" arrivalLane="-WE_0" arrivalPos="250.00" arrivalSpeed="13.47" duration="80.00" routeLength="509.40" waitingTime="22.00" waitingCount="2" stopTime="0.00" timeLoss="53.22" rerouteNo="0" devices="tripinfo_E2W_42" vType="ego_car" speedFactor="0.96" vaporized=""/>
    <tripinfo id="E2W_43" depart="459.00" departLane="EW_0" departPos="5.00" departSpeed="10.00" departDelay="0.00" arrival="539.00" arrivalLane="-WE_0" arrivalPos="250.00" arrivalSpeed="13.63" duration="80.00" routeLength="509.40" waitingTime="0.00" waitingCount="0" stopTime="0.00" timeLoss="54.04" rerouteNo="0" devices="tripinfo_E2W_43" vType="ego_car" speedFactor="1.09" vaporized=""/>
    <tripinfo id="E2W_45" depart="475.00" departLane="EW_0" departPos="5.00" departSpeed="10.00" departDelay="0.00" arrival="541.00" arrivalLane="-WE_0" arrivalPos="250.00" arrivalSpeed="13.40" duration="66.00" routeLength="509.40" waitingTime="0.00" waitingCount="0" stopTime="0.00" timeLoss="40.35" rerouteNo="0" devices="tripinfo_E2W_45" vType="ego_car" speedFactor="1.04" vaporized=""/>
    <tripinfo id="E2W_48" depart="493.00" departLane="EW_0" departPos="5.00" departSpeed="10.00" departDelay="0.00" arrival="544.00" arrivalLane="-WE_0" arrivalPos="250.00" arrivalSpeed="13.44" duration="51.00" routeLength="509.40" waitingTime="0.00" waitingCount="0" stopTime="0.00" timeLoss="22.09" rerouteNo="0" devices="tripinfo_E2W_48" vType="ego_car" speedFactor="0.90" vaporized=""/>
    <tripinfo id="W2E_46" depart="485.00" departLane="WE_0" departPos="5.00" departSpeed="10.00" departDelay="0.00" arrival="552.00" arrivalLane="-EW_0" arrivalPos="250.00" arrivalSpeed="13.79" duration="67.00" routeLength="509.40" waitingTime="0.00" waitingCount="0" stopTime="0.00" timeLoss="40.85" rerouteNo="0" devices="tripinfo_W2E_46" vType="ego_car" speedFactor="1.09" vaporized=""/>
    <tripinfo id="E2W_52" depart="512.00" departLane="EW_0" departPos="5.00" departSpeed="10.00" departDelay="0.00" arrival="552.00" arrivalLane="-WE_0" arrivalPos="250.00" arrivalSpeed="13.79" duration="40.00" routeLength="509.40" waitingTime="0.00" waitingCount="0" stopTime="0.00" timeLoss="14.10" rerouteNo="0" devices="tripinfo_E2W_52" vType="ego_car" speedFactor="1.17" vaporized=""/>
    <tripinfo id="W2E_50" depart="502.00" departLane="WE_0" departPos="5.00" departSpeed="10.00" departDelay="0.00" arrival="559.00" arrivalLane="-EW_0" arrivalPos="250.00" arrivalSpeed="13.79" duration="57.00" routeLength="509.40" waitingTime="0.00" waitingCount="0" stopTime="0.00" timeLoss="26.99" rerouteNo="0" devices="tripinfo_W2E_50" vType="ego_car" speedFactor="0.85" vaporized=""/>
    <tripinfo id="N2S_44" depart="472.00" departLane="NS_0" departPos="5.00" departSpeed="10.00" departDelay="0.00" arrival="567.00" arrivalLane="-SN_0" arrivalPos="250.00" arrivalSpeed="13.79" duration="95.00" routeLength="509.40" waitingTime="27.00" waitingCount="1" stopTime="0.00" timeLoss="69.24" rerouteNo="0" devices="tripinfo_N2S_44" vType="ego_car" speedFactor="1.04" vaporized=""/>
    <tripinfo id="N2S_47" depart="488.00" departLane="NS_0" departPos="5.00" departSpeed="10.00" departDelay="0.00" arrival="570.00" arrivalLane="-SN_0" arrivalPos="250.00" arrivalSpeed="13.56" duration="82.00" routeLength="509.40" waitingTime="12.00" waitingCount="1" stopTime="0.00" timeLoss="55.80" rerouteNo="0" devices="tripinfo_N2S_47" vType="ego_car" speedFactor="1.00" vaporized=""/>
    <tripinfo id="S2N_49" depart="494.00" departLane="SN_0" departPos="5.00" departSpeed="10.00" departDelay="0.00" arrival="581.00" arrivalLane="-NS_0" arrivalPos="250.00" arrivalSpeed="13.79" duration="87.00" routeLength="509.40" waitingTime="0.00" waitingCount="0" stopTime="0.00" timeLoss="57.30" rerouteNo="0" devices="tripinfo_S2N_49" vType="ego_car" speedFactor="0.88" vaporized=""/>
    <tripinfo id="E2W_53" depart="517.00" departLane="EW_0" departPos="5.00" departSpeed="10.00" departDelay="0.00" arrival="600.00" arrivalLane="-WE_0" arrivalPos="250.00" arrivalSpeed="13.79" duration="83.00" routeLength="509.40" waitingTime="2.00" waitingCount="2" stopTime="0.00" timeLoss="57.15" rerouteNo="0" devices="tripinfo_E2W_53" vType="ego_car" speedFactor="1.02" vaporized=""/>
    <tripinfo id="W2E_51" depart="509.00" departLane="WE_0" departPos="5.00" departSpeed="10.00" departDelay="0.00" arrival="601.00" arrivalLane="-EW_0" arrivalPos="250.00" arrivalSpeed="13.79" duration="92.00" routeLength="509.40" waitingTime="22.00" waitingCount="1" stopTime="0.00" timeLoss="61.58" rerouteNo="0" devices="tripinfo_W2E_51" vType="ego_car" speedFactor="0.85" vaporized=""/>
    <tripinfo id="E2W_54" depart="519.00" departLane="EW_0" departPos="5.00" departSpeed="10.00" departDelay="1.00" arrival="604.00" arrivalLane="-WE_0" arrivalPos="250.00" arrivalSpeed="13.70" duration="85.00" routeLength="509.40" waitingTime="0.00" waitingCount="0" stopTime="0.00" timeLoss="59.17" rerouteNo="0" devices="tripinfo_E2W_54" vType="ego_car" speedFactor="1.10" vaporized=""/>
    <tripinfo id="E2W_55" depart="528.00" departLane="EW_0" departPos="5.00" departSpeed="10.00" departDelay="0.00" arrival="606.00" arrivalLane="-WE_0" arrivalPos="250.00" arrivalSpeed="13.43" duration="78.00" routeLength="509.40" waitingTime="1.00" waitingCount="1" stopTime="0.00" timeLoss="52.53" rerouteNo="0" devices="tripinfo_E2W_55" vType="ego_car" speedFactor="1.00" vaporized=""/>
    <tripinfo id="W2E_56" depart="536.00" departLane="WE_0" departPos="5.00" departSpeed="10.00" departDelay="0.00" arrival="607.00" arrivalLane="-EW_0" arrivalPos="250.00" arrivalSpeed="13.77" duration="71.00" routeLength="509.40" waitingTime="0.00" waitingCount="0" stopTime="0.00" timeLoss="44.89" rerouteNo="0" devices="tripinfo_W2E_56" vType="ego_car" speedFactor="1.00" vaporized=""/>
    <tripinfo id="E2W_57" depart="538.00" departLane="EW_0" departPos="5.00" departSpeed="10.00" departDelay="0.00" arrival="609.00" arrivalLane="-WE_0" arrivalPos="250.00" arrivalSpeed="13.45" duration="71.00" routeLength="509.40" waitingTime="0.00" waitingCount="0" stopTime="0.00" timeLoss="42.22" rerouteNo="0" devices="tripinfo_E2W_57" vType="ego_car" speedFactor="0.90" vaporized=""/>
    <tripinfo id="W2E_58" depart="547.00" departLane="WE_0" departPos="5.00" departSpeed="10.00" departDelay="0.00" arrival="609.00" arrivalLane="-EW_0" arrivalPos="250.00" arrivalSpeed="13.48" duration="62.00" routeLength="509.40" waitingTime="0.00" waitingCount="0" stopTime="0.00" timeLoss="36.42" rerouteNo="0" devices="tripinfo_W2E_58" vType="ego_car" speedFactor="1.14" vaporized=""/>
    <tripinfo id="W2E_59" depart="552.00" departLane="WE_0" departPos="5.00" departSpeed="10.00" departDelay="3.00" arrival="612.00" arrivalLane="-EW_0" arrivalPos="250.00" arrivalSpeed="13.47" duration="60.00" routeLength="509.40" waitingTime="0.00" waitingCount="0" stopTime="0.00" timeLoss="34.09" rerouteNo="0" devices="tripinfo_W2E_59" vType="ego_car" speedFactor="1.02" vaporized=""/>
    <tripinfo id="W2E_63" depart="569.00" departLane="WE_0" departPos="5.00" departSpeed="10.00" departDelay="0.00" arrival="614.00" arrivalLane="-EW_0" arrivalPos="250.00" arrivalSpeed="13.34" duration="45.00" routeLength="509.40" waitingTime="0.00" waitingCount="0" stopTime="0.00" timeLoss="19.45" rerouteNo="0" devices="tripinfo_W2E_63" vType="ego_car" speedFactor="1.02" vaporized=""/>
    <tripinfo id="E2W_67" depart="585.00" departLane="EW_0" departPos="5.00" departSpeed="10.00" departDelay="0.00" arrival="625.00" arrivalLane="-WE_0" arrivalPos="250.00" arrivalSpeed="13.79" duration="40.00" routeLength="509.40" waitingTime="0.00" waitingCount="0" stopTime="0.00" timeLoss="11.90" rerouteNo="0" devices="tripinfo_E2W_67" vType="ego_car" speedFactor="0.91" vaporized=""/>
    <tripinfo id="W2E_64" depart="571.00" departLane="WE_0" departPos="5.00" departSpeed="10.00" departDelay="1.00" arrival="626.00" arrivalLane="-EW_0" arrivalPos="250.00" arrivalSpeed="13.80" duration="55.00" routeLength="509.40" waitingTime="0.00" waitingCount="0" stopTime="0.00" timeLoss="29.11" rerouteNo="0" devices="tripinfo_W2E_64" vType="ego_car" speedFactor="0.99" vaporized=""/>
    <tripinfo id="N2S_60" depart="558.00" departLane="NS_0" departPos="5.00" departSpeed="10.00" departDelay="0.00" arrival="635.00" arrivalLane="-SN_0" arrivalPos="250.00" arrivalSpeed="13.79" duration="77.00" routeLength="509.40" waitingTime="34.00" waitingCount="1" stopTime="0.00" timeLoss="50.17" rerouteNo="0" devices="tripinfo_N2S_60" vType="ego_car" speedFactor="0.97" vaporized=""/>
    <tripinfo id="S2N_61" depart="561.00" departLane="SN_0" departPos="5.00" departSpeed="10.00" departDelay="0.00" arrival="650.00" arrivalLane="-NS_0" arrivalPos="250.00" arrivalSpeed="13.79" duration="89.00" routeLength="509.40" waitingTime="0.00" waitingCount="0" stopTime="0.00" timeLoss="63.40" rerouteNo="0" devices="tripinfo_S2N_61" vType="ego_car" speedFactor="1.08" vaporized=""/>
    <tripinfo id="S2N_62" depart="570.00" departLane="SN_0" departPos="5.00" departSpeed="10.00" departDelay="3.00" arrival="656.00" arrivalLane="-NS_0" arrivalPos="250.00" arrivalSpeed="13.77" duration="86.00" routeLength="509.40" waitingTime="1.00" waitingCount="1" stopTime="0.00" timeLoss="60.32" rerouteNo="0" devices="tripinfo_S2N_62" vType="ego_car" speedFactor="1.12" vaporized=""/>
    <tripinfo id="S2N_65" depart="575.00" departLane="SN_0" departPos="5.00" departSpeed="10.00" departDelay="0.00" arrival="661.00" arrivalLane="-NS_0" arrivalPos="250.00" arrivalSpeed="13.75" duration="86.00" routeLength="509.40" waitingTime="0.00" waitingCount="0" stopTime="0.00" timeLoss="58.67" rerouteNo="0" devices="tripinfo_S2N_65" vType="ego_car" speedFactor="0.94" vaporized=""/>
    <tripinfo id="E2W_70" depart="620.00" departLane="EW_0" departPos="5.00" departSpeed="10.00" departDelay="0.00" arrival="683.00" arrivalLane="-WE_0" arrivalPos="250.00" arrivalSpeed="13.79" duration="63.00" routeLength="509.40" waitingTime="0.00" waitingCount="0" stopTime="0.00" timeLoss="37.47" rerouteNo="0" devices="tripinfo_E2W_70" vType="ego_car" speedFactor="1.02" vaporized=""/>
    <tripinfo id="E2W_72" depart="640.00" departLane="EW_0" departPos="5.00" departSpeed="10.00" departDelay="0.00" arrival="689.00" arrivalLane="-WE_0" arrivalPos="250.00" arrivalSpeed="13.77" duration="49.00" routeLength="509.40" waitingTime="0.00" waitingCount="0" stopTime="0.00" timeLoss="22.82" rerouteNo="0" devices="tripinfo_E2W_72" vType="ego_car" speedFactor="0.97" vaporized=""/>
    <tripinfo id="S2N_66" depart="584.00" departLane="SN_0" departPos="5.00" departSpeed="10.00" departDelay="0.00" arrival="703.00" arrivalLane="-NS_0" arrivalPos="250.00" arrivalSpeed="13.79" duration="119.00" routeLength="509.40" waitingTime="37.00" waitingCount="2" stopTime="0.00" timeLoss="89.66" rerouteNo="0" devices="tripinfo_S2N_66" vType="ego_car" speedFactor="0.88" vaporized=""/>
    <tripinfo id="S2N_68" depart="596.00" departLane="SN_0" departPos="5.00" departSpeed="10.00" departDelay="0.00" arrival="705.00" arrivalLane="-NS_0" arrivalPos="250.00" arrivalSpeed="13.46" duration="109.00" routeLength="509.40" waitingTime="32.00" waitingCount="1" stopTime="0.00" timeLoss="81.05" rerouteNo="0" devices="tripinfo_S2N_68" vType="ego_car" speedFactor="0.91" vaporized=""/>
    <tripinfo id="S2N_69" depart="609.00" departLane="SN_0" departPos="5.00" departSpeed="10.00" departDelay="0.00" arrival="708.00" arrivalLane="-NS_0" arrivalPos="250.00" arrivalSpeed="13.47" duration="99.00" routeLength="509.40" waitingTime="29.00" waitingCount="1" stopTime="0.00" timeLoss="73.08" rerouteNo="0" devices="tripinfo_S2N_69" vType="ego_car" speedFactor="1.04" vaporized=""/>
    <tripinfo id="S2N_75" depart="647.00" departLane="SN_0" departPos="5.00" departSpeed="10.00" departDelay="0.00" arrival="710.00" arrivalLane="-NS_0" arrivalPos="250.00" arrivalSpeed="13.35" duration="63.00" routeLength="509.40" waitingTime="0.00" waitingCount="0" stopTime="0.00" timeLoss="36.31" rerouteNo="0" devices="tripinfo_S2N_75" vType="ego_car" speedFactor="0.96" vaporized=""/>
    <tripinfo id="S2N_77" depart="653.00" departLane="SN_0" departPos="5.00" departSpeed="10.00" departDelay="3.00" arrival="713.00" arrivalLane="-NS_0" arrivalPos="250.00" arrivalSpeed="13.43" duration="60.00" routeLength="509.40" waitingTime="0.00" waitingCount="0" stopTime="0.00" timeLoss="34.12" rerouteNo="0" devices="tripinfo_S2N_77" vType="ego_car" speedFactor="1.03" vaporized=""/>