<?xml version="1.0" encoding="UTF-8"?>

<!-- generated on 2022-06-16 16:47:55 by Eclipse SUMO sumo Version 1.13.0
<configuration xmlns:xsi="http://www.w3.org/2001/XMLSchema-instance" xsi:noNamespaceSchemaLocation="http://sumo.dlr.de/xsd/sumoConfiguration.xsd">

    <input>
        <net-file value="/home/pc10/sumo_workplace/DDPG/last_test/intersection.net.xml"/>
        <route-files value="/home/pc10/sumo_workplace/DDPG/last_test/intersection100.rou.xml"/>
    </input>

    <output>
        <tripinfo-output value="/home/pc10/sumo_workplace/DDPG/last_test/tripinfo.xml"/>
    </output>

    <time>
        <begin value="0"/>
        <end value="3600"/>
        <step-length value="1"/>
    </time>

    <processing>
        <waiting-time-memory value="200"/>
    </processing>

    <report>
        <no-step-log value="true"/>
    </report>

    <traci_server>
        <remote-port value="34385"/>
    </traci_server>

    <gui_only>
        <tracker-interval value="1"/>
    </gui_only>

</configuration>
-->

<tripinfos xmlns:xsi="http://www.w3.org/2001/XMLSchema-instance" xsi:noNamespaceSchemaLocation="http://sumo.dlr.de/xsd/tripinfo_file.xsd">
    <tripinfo id="S2N_2" depart="6.00" departLane="SN_0" departPos="5.00" departSpeed="10.00" departDelay="0.00" arrival="35.00" arrivalLane="-NS_0" arrivalPos="250.00" arrivalSpeed="18.67" duration="29.00" routeLength="509.40" waitingTime="0.00" waitingCount="0" stopTime="0.00" timeLoss="0.89" rerouteNo="0" devices="tripinfo_S2N_2" vType="ego_car" speedFactor="0.94" vaporized=""/>
    <tripinfo id="N2S_4" depart="8.00" departLane="NS_0" departPos="5.00" departSpeed="10.00" departDelay="0.00" arrival="35.00" arrivalLane="-SN_0" arrivalPos="250.00" arrivalSpeed="19.71" duration="27.00" routeLength="509.40" waitingTime="0.00" waitingCount="0" stopTime="0.00" timeLoss="0.99" rerouteNo="0" devices="tripinfo_N2S_4" vType="ego_car" speedFactor="1.08" vaporized=""/>
    <tripinfo id="S2N_3" depart="7.00" departLane="SN_0" departPos="5.00" departSpeed="10.00" departDelay="0.00" arrival="36.00" arrivalLane="-NS_0" arrivalPos="250.00" arrivalSpeed="19.54" duration="29.00" routeLength="509.40" waitingTime="0.00" waitingCount="0" stopTime="0.00" timeLoss="3.44" rerouteNo="0" devices="tripinfo_S2N_3" vType="ego_car" speedFactor="1.01" vaporized=""/>
    <tripinfo id="N2S_5" depart="9.00" departLane="NS_0" departPos="5.00" departSpeed="10.00" departDelay="0.00" arrival="37.00" arrivalLane="-SN_0" arrivalPos="250.00" arrivalSpeed="19.56" duration="28.00" routeLength="509.40" waitingTime="0.00" waitingCount="0" stopTime="0.00" timeLoss="1.93" rerouteNo="0" devices="tripinfo_N2S_5" vType="ego_car" speedFactor="1.03" vaporized=""/>
    <tripinfo id="S2N_6" depart="12.00" departLane="SN_0" departPos="5.00" departSpeed="10.00" departDelay="0.00" arrival="44.00" arrivalLane="-NS_0" arrivalPos="250.00" arrivalSpeed="16.48" duration="32.00" routeLength="509.40" waitingTime="0.00" waitingCount="0" stopTime="0.00" timeLoss="0.82" rerouteNo="0" devices="tripinfo_S2N_6" vType="ego_car" speedFactor="0.83" vaporized=""/>
    <tripinfo id="N2S_11" depart="18.00" departLane="NS_0" departPos="5.00" departSpeed="10.00" departDelay="0.00" arrival="45.00" arrivalLane="-SN_0" arrivalPos="250.00" arrivalSpeed="19.42" duration="27.00" routeLength="509.40" waitingTime="0.00" waitingCount="0" stopTime="0.00" timeLoss="1.05" rerouteNo="0" devices="tripinfo_N2S_11" vType="ego_car" speedFactor="1.09" vaporized=""/>
    <tripinfo id="S2N_7" depart="14.00" departLane="SN_0" departPos="5.00" departSpeed="10.00" departDelay="0.00" arrival="46.00" arrivalLane="-NS_0" arrivalPos="250.00" arrivalSpeed="19.69" duration="32.00" routeLength="509.40" waitingTime="0.00" waitingCount="0" stopTime="0.00" timeLoss="5.77" rerouteNo="0" devices="tripinfo_S2N_7" vType="ego_car" speedFactor="1.05" vaporized=""/>
    <tripinfo id="W2E_1" depart="4.00" departLane="WE_0" departPos="5.00" departSpeed="10.00" departDelay="0.00" arrival="50.00" arrivalLane="-EW_0" arrivalPos="250.00" arrivalSpeed="19.40" duration="46.00" routeLength="509.40" waitingTime="12.00" waitingCount="1" stopTime="0.00" timeLoss="20.11" rerouteNo="0" devices="tripinfo_W2E_1" vType="ego_car" speedFactor="1.06" vaporized=""/>
    <tripinfo id="E2W_9" depart="16.00" departLane="EW_0" departPos="5.00" departSpeed="10.00" departDelay="0.00" arrival="50.00" arrivalLane="-WE_0" arrivalPos="250.00" arrivalSpeed="18.40" duration="34.00" routeLength="509.40" waitingTime="0.00" waitingCount="0" stopTime="0.00" timeLoss="6.56" rerouteNo="0" devices="tripinfo_E2W_9" vType="ego_car" speedFactor="0.94" vaporized=""/>
    <tripinfo id="W2E_8" depart="15.00" departLane="WE_0" departPos="5.00" departSpeed="10.00" departDelay="0.00" arrival="53.00" arrivalLane="-EW_0" arrivalPos="250.00" arrivalSpeed="17.55" duration="38.00" routeLength="509.40" waitingTime="0.00" waitingCount="0" stopTime="0.00" timeLoss="8.95" rerouteNo="0" devices="tripinfo_W2E_8" vType="ego_car" speedFactor="0.89" vaporized=""/>
    <tripinfo id="W2E_13" depart="25.00" departLane="WE_0" departPos="5.00" departSpeed="10.00" departDelay="0.00" arrival="55.00" arrivalLane="-EW_0" arrivalPos="250.00" arrivalSpeed="19.73" duration="30.00" routeLength="509.40" waitingTime="0.00" waitingCount="0" stopTime="0.00" timeLoss="4.03" rerouteNo="0" devices="tripinfo_W2E_13" vType="ego_car" speedFactor="1.05" vaporized=""/>
    <tripinfo id="W2E_14" depart="27.00" departLane="WE_0" departPos="5.00" departSpeed="10.00" departDelay="0.00" arrival="57.00" arrivalLane="-EW_0" arrivalPos="250.00" arrivalSpeed="19.99" duration="30.00" routeLength="509.40" waitingTime="0.00" waitingCount="0" stopTime="0.00" timeLoss="3.87" rerouteNo="0" devices="tripinfo_W2E_14" vType="ego_car" speedFactor="1.12" vaporized=""/>
    <tripinfo id="W2E_16" depart="29.00" departLane="WE_0" departPos="5.00" departSpeed="10.00" departDelay="0.00" arrival="59.00" arrivalLane="-EW_0" arrivalPos="250.00" arrivalSpeed="17.95" duration="30.00" routeLength="509.40" waitingTime="0.00" waitingCount="0" stopTime="0.00" timeLoss="1.99" rerouteNo="0" devices="tripinfo_W2E_16" vType="ego_car" speedFactor="0.93" vaporized=""/>
    <tripinfo id="W2E_17" depart="31.00" departLane="WE_0" departPos="5.00" departSpeed="10.00" departDelay="0.00" arrival="62.00" arrivalLane="-EW_0" arrivalPos="250.00" arrivalSpeed="17.24" duration="31.00" routeLength="509.40" waitingTime="0.00" waitingCount="0" stopTime="0.00" timeLoss="1.29" rerouteNo="0" devices="tripinfo_W2E_17" vType="ego_car" speedFactor="0.88" vaporized=""/>
    <tripinfo id="E2W_20" depart="35.00" departLane="EW_0" departPos="5.00" departSpeed="10.00" departDelay="0.00" arrival="62.00" arrivalLane="-WE_0" arrivalPos="250.00" arrivalSpeed="19.62" duration="27.00" routeLength="509.40" waitingTime="0.00" waitingCount="0" stopTime="0.00" timeLoss="1.05" rerouteNo="0" devices="tripinfo_E2W_20" vType="ego_car" speedFactor="1.16" vaporized=""/>
    <tripinfo id="E2W_22" depart="37.00" departLane="EW_0" departPos="5.00" departSpeed="10.00" departDelay="0.00" arrival="64.00" arrivalLane="-WE_0" arrivalPos="250.00" arrivalSpeed="19.77" duration="27.00" routeLength="509.40" waitingTime="0.00" waitingCount="0" stopTime="0.00" timeLoss="1.09" rerouteNo="0" devices="tripinfo_E2W_22" vType="ego_car" speedFactor="1.01" vaporized=""/>
    <tripinfo id="E2W_23" depart="38.00" departLane="EW_0" departPos="5.00" departSpeed="10.00" departDelay="0.00" arrival="66.00" arrivalLane="-WE_0" arrivalPos="250.00" arrivalSpeed="18.96" duration="28.00" routeLength="509.40" waitingTime="0.00" waitingCount="0" stopTime="0.00" timeLoss="1.60" rerouteNo="0" devices="tripinfo_E2W_23" vType="ego_car" speedFactor="0.97" vaporized=""/>
    <tripinfo id="E2W_24" depart="40.00" departLane="EW_0" departPos="5.00" departSpeed="10.00" departDelay="0.00" arrival="70.00" arrivalLane="-WE_0" arrivalPos="250.00" arrivalSpeed="17.20" duration="30.00" routeLength="509.40" waitingTime="0.00" waitingCount="0" stopTime="0.00" timeLoss="1.18" rerouteNo="0" devices="tripinfo_E2W_24" vType="ego_car" speedFactor="0.89" vaporized=""/>
    <tripinfo id="W2E_25" depart="40.00" departLane="WE_0" departPos="5.00" departSpeed="10.00" departDelay="0.00" arrival="72.00" arrivalLane="-EW_0" arrivalPos="250.00" arrivalSpeed="16.04" duration="32.00" routeLength="509.40" waitingTime="0.00" waitingCount="0" stopTime="0.00" timeLoss="0.79" rerouteNo="0" devices="tripinfo_W2E_25" vType="ego_car" speedFactor="0.83" vaporized=""/>
    <tripinfo id="W2E_26" depart="41.00" departLane="WE_0" departPos="5.00" departSpeed="10.00" departDelay="0.00" arrival="74.00" arrivalLane="-EW_0" arrivalPos="250.00" arrivalSpeed="17.12" duration="33.00" routeLength="509.40" waitingTime="0.00" waitingCount="0" stopTime="0.00" timeLoss="3.35" rerouteNo="0" devices="tripinfo_W2E_26" vType="ego_car" speedFactor="0.87" vaporized=""/>
    <tripinfo id="W2E_31" depart="50.00" departLane="WE_0" departPos="5.00" departSpeed="10.00" departDelay="0.00" arrival="77.00" arrivalLane="-EW_0" arrivalPos="250.00" arrivalSpeed="19.86" duration="27.00" routeLength="509.40" waitingTime="0.00" waitingCount="0" stopTime="0.00" timeLoss="1.06" rerouteNo="0" devices="tripinfo_W2E_31" vType="ego_car" speedFactor="1.18" vaporized=""/>
    <tripinfo id="E2W_30" depart="50.00" departLane="EW_0" departPos="5.00" departSpeed="10.00" departDelay="0.00" arrival="79.00" arrivalLane="-WE_0" arrivalPos="250.00" arrivalSpeed="18.26" duration="29.00" routeLength="509.40" waitingTime="0.00" waitingCount="0" stopTime="0.00" timeLoss="0.95" rerouteNo="0" devices="tripinfo_E2W_30" vType="ego_car" speedFactor="0.93" vaporized=""/>
    <tripinfo id="W2E_34" depart="51.00" departLane="WE_0" departPos="5.00" departSpeed="10.00" departDelay="0.00" arrival="79.00" arrivalLane="-EW_0" arrivalPos="250.00" arrivalSpeed="19.79" duration="28.00" routeLength="509.40" waitingTime="0.00" waitingCount="0" stopTime="0.00" timeLoss="1.96" rerouteNo="0" devices="tripinfo_W2E_34" vType="ego_car" speedFactor="1.17" vaporized=""/>
    <tripinfo id="N2S_12" depart="19.00" departLane="NS_0" departPos="5.00" departSpeed="10.00" departDelay="0.00" arrival="84.00" arrivalLane="-SN_0" arrivalPos="250.00" arrivalSpeed="19.48" duration="65.00" routeLength="509.40" waitingTime="31.00" waitingCount="1" stopTime="0.00" timeLoss="39.18" rerouteNo="0" devices="tripinfo_N2S_12" vType="ego_car" speedFactor="1.03" vaporized=""/>
    <tripinfo id="S2N_10" depart="16.00" departLane="SN_0" departPos="5.00" departSpeed="10.00" departDelay="0.00" arrival="86.00" arrivalLane="-NS_0" arrivalPos="250.00" arrivalSpeed="16.91" duration="70.00" routeLength="509.40" waitingTime="33.00" waitingCount="1" stopTime="0.00" timeLoss="39.72" rerouteNo="0" devices="tripinfo_S2N_10" vType="ego_car" speedFactor="0.86" vaporized=""/>
    <tripinfo id="N2S_19" depart="34.00" departLane="NS_0" departPos="5.00" departSpeed="10.00" departDelay="0.00" arrival="87.00" arrivalLane="-SN_0" arrivalPos="250.00" arrivalSpeed="18.15" duration="53.00" routeLength="509.40" waitingTime="14.00" waitingCount="1" stopTime="0.00" timeLoss="24.83" rerouteNo="0" devices="tripinfo_N2S_19" vType="ego_car" speedFactor="0.94" vaporized=""/>
    <tripinfo id="S2N_15" depart="27.00" departLane="SN_0" departPos="5.00" departSpeed="10.00" departDelay="0.00" arrival="88.00" arrivalLane="-NS_0" arrivalPos="250.00" arrivalSpeed="19.38" duration="61.00" routeLength="509.40" waitingTime="22.00" waitingCount="1" stopTime="0.00" timeLoss="34.53" rerouteNo="0" devices="tripinfo_S2N_15" vType="ego_car" speedFactor="0.99" vaporized=""/>
    <tripinfo id="N2S_35" depart="52.00" departLane="NS_0" departPos="5.00" departSpeed="10.00" departDelay="0.00" arrival="88.00" arrivalLane="-SN_0" arrivalPos="250.00" arrivalSpeed="19.74" duration="36.00" routeLength="509.40" waitingTime="0.00" waitingCount="0" stopTime="0.00" timeLoss="10.24" rerouteNo="0" devices="tripinfo_N2S_35" vType="ego_car" speedFactor="0.99" vaporized=""/>
    <tripinfo id="S2N_18" depart="31.00" departLane="SN_0" departPos="5.00" departSpeed="10.00" departDelay="0.00" arrival="90.00" arrivalLane="-NS_0" arrivalPos="250.00" arrivalSpeed="18.46" duration="59.00" routeLength="509.40" waitingTime="18.00" waitingCount="1" stopTime="0.00" timeLoss="31.03" rerouteNo="0" devices="tripinfo_S2N_18" vType="ego_car" speedFactor="0.94" vaporized=""/>
    <tripinfo id="N2S_36" depart="53.00" departLane="NS_0" departPos="5.00" departSpeed="10.00" departDelay="1.00" arrival="90.00" arrivalLane="-SN_0" arrivalPos="250.00" arrivalSpeed="19.58" duration="37.00" routeLength="509.40" waitingTime="0.00" waitingCount="0" stopTime="0.00" timeLoss="11.20" rerouteNo="0" devices="tripinfo_N2S_36" vType="ego_car" speedFactor="1.02" vaporized=""/>
    <tripinfo id="S2N_21" depart="35.00" departLane="SN_0" departPos="5.00" departSpeed="10.00" departDelay="0.00" arrival="91.00" arrivalLane="-NS_0" arrivalPos="250.00" arrivalSpeed="19.41" duration="56.00" routeLength="509.40" waitingTime="15.00" waitingCount="1" stopTime="0.00" timeLoss="30.40" rerouteNo="0" devices="tripinfo_S2N_21" vType="ego_car" speedFactor="1.02" vaporized=""/>
    <tripinfo id="N2S_39" depart="55.00" departLane="NS_0" departPos="5.00" departSpeed="10.00" departDelay="0.00" arrival="92.00" arrivalLane="-SN_0" arrivalPos="250.00" arrivalSpeed="19.64" duration="37.00" routeLength="509.40" waitingTime="0.00" waitingCount="0" stopTime="0.00" timeLoss="11.04" rerouteNo="0" devices="tripinfo_N2S_39" vType="ego_car" speedFactor="1.10" vaporized=""/>
    <tripinfo id="S2N_27" depart="42.00" departLane="SN_0" departPos="5.00" departSpeed="10.00" departDelay="0.00" arrival="93.00" arrivalLane="-NS_0" arrivalPos="250.00" arrivalSpeed="17.77" duration="51.00" routeLength="509.40" waitingTime="10.00" waitingCount="1" stopTime="0.00" timeLoss="23.09" rerouteNo="0" devices="tripinfo_S2N_27" vType="ego_car" speedFactor="0.92" vaporized=""/>
    <tripinfo id="N2S_41" depart="57.00" departLane="NS_0" departPos="5.00" departSpeed="10.00" departDelay="0.00" arrival="94.00" arrivalLane="-SN_0" arrivalPos="250.00" arrivalSpeed="19.44" duration="37.00" routeLength="509.40" waitingTime="0.00" waitingCount="0" stopTime="0.00" timeLoss="10.89" rerouteNo="0" devices="tripinfo_N2S_41" vType="ego_car" speedFactor="1.03" vaporized=""/>
    <tripinfo id="S2N_28" depart="44.00" departLane="SN_0" departPos="5.00" departSpeed="10.00" departDelay="0.00" arrival="95.00" arrivalLane="-NS_0" arrivalPos="250.00" arrivalSpeed="18.39" duration="51.00" routeLength="509.40" waitingTime="8.00" waitingCount="1" stopTime="0.00" timeLoss="23.82" rerouteNo="0" devices="tripinfo_S2N_28" vType="ego_car" speedFactor="0.95" vaporized=""/>
    <tripinfo id="N2S_44" depart="61.00" departLane="NS_0" departPos="5.00" departSpeed="10.00" departDelay="0.00" arrival="96.00" arrivalLane="-SN_0" arrivalPos="250.00" arrivalSpeed="19.72" duration="35.00" routeLength="509.40" waitingTime="0.00" waitingCount="0" stopTime="0.00" timeLoss="8.71" rerouteNo="0" devices="tripinfo_N2S_44" vType="ego_car" speedFactor="1.04" vaporized=""/>
    <tripinfo id="S2N_29" depart="49.00" departLane="SN_0" departPos="5.00" departSpeed="10.00" departDelay="0.00" arrival="97.00" arrivalLane="-NS_0" arrivalPos="250.00" arrivalSpeed="19.87" duration="48.00" routeLength="509.40" waitingTime="5.00" waitingCount="1" stopTime="0.00" timeLoss="21.95" rerouteNo="0" devices="tripinfo_S2N_29" vType="ego_car" speedFactor="1.13" vaporized=""/>
    <tripinfo id="N2S_46" depart="63.00" departLane="NS_0" departPos="5.00" departSpeed="10.00" departDelay="0.00" arrival="97.00" arrivalLane="-SN_0" arrivalPos="250.00" arrivalSpeed="19.99" duration="34.00" routeLength="509.40" waitingTime="0.00" waitingCount="0" stopTime="0.00" timeLoss="8.53" rerouteNo="0" devices="tripinfo_N2S_46" vType="ego_car" speedFactor="1.09" vaporized=""/>
    <tripinfo id="S2N_32" depart="50.00" departLane="SN_0" departPos="5.00" departSpeed="10.00" departDelay="0.00" arrival="99.00" arrivalLane="-NS_0" arrivalPos="250.00" arrivalSpeed="19.71" duration="49.00" routeLength="509.40" waitingTime="5.00" waitingCount="1" stopTime="0.00" timeLoss="22.76" rerouteNo="0" devices="tripinfo_S2N_32" vType="ego_car" speedFactor="1.15" vaporized=""/>
    <tripinfo id="N2S_47" depart="65.00" departLane="NS_0" departPos="5.00" departSpeed="10.00" departDelay="0.00" arrival="99.00" arrivalLane="-SN_0" arrivalPos="250.00" arrivalSpeed="19.81" duration="34.00" routeLength="509.40" waitingTime="0.00" waitingCount="0" stopTime="0.00" timeLoss="8.29" rerouteNo="0" devices="tripinfo_N2S_47" vType="ego_car" speedFactor="1.00" vaporized=""/>
    <tripinfo id="S2N_37" depart="52.00" departLane="SN_0" departPos="5.00" departSpeed="10.00" departDelay="0.00" arrival="101.00" arrivalLane="-NS_0" arrivalPos="250.00" arrivalSpeed="19.00" duration="49.00" routeLength="509.40" waitingTime="3.00" waitingCount="1" stopTime="0.00" timeLoss="21.97" rerouteNo="0" devices="tripinfo_S2N_37" vType="ego_car" speedFactor="0.97" vaporized=""/>
    <tripinfo id="S2N_40" depart="56.00" departLane="SN_0" departPos="5.00" departSpeed="10.00" departDelay="0.00" arrival="103.00" arrivalLane="-NS_0" arrivalPos="250.00" arrivalSpeed="17.74" duration="47.00" routeLength="509.40" waitingTime="0.00" waitingCount="0" stopTime="0.00" timeLoss="17.99" rerouteNo="0" devices="tripinfo_S2N_40" vType="ego_car" speedFactor="0.90" vaporized=""/>
    <tripinfo id="N2S_50" depart="71.00" departLane="NS_0" departPos="5.00" departSpeed="10.00" departDelay="0.00" arrival="103.00" arrivalLane="-SN_0" arrivalPos="250.00" arrivalSpeed="16.84" duration="32.00" routeLength="509.40" waitingTime="0.00" waitingCount="0" stopTime="0.00" timeLoss="1.11" rerouteNo="0" devices="tripinfo_N2S_50" vType="ego_car" speedFactor="0.85" vaporized=""/>
    <tripinfo id="N2S_55" depart="73.00" departLane="NS_0" departPos="5.00" departSpeed="10.00" departDelay="0.00" arrival="104.00" arrivalLane="-SN_0" arrivalPos="250.00" arrivalSpeed="19.10" duration="31.00" routeLength="509.40" waitingTime="0.00" waitingCount="0" stopTime="0.00" timeLoss="5.43" rerouteNo="0" devices="tripinfo_N2S_55" vType="ego_car" speedFactor="1.00" vaporized=""/>
    <tripinfo id="S2N_43" depart="60.00" departLane="SN_0" departPos="5.00" departSpeed="10.00" departDelay="0.00" arrival="105.00" arrivalLane="-NS_0" arrivalPos="250.00" arrivalSpeed="19.44" duration="45.00" routeLength="509.40" waitingTime="0.00" waitingCount="0" stopTime="0.00" timeLoss="18.58" rerouteNo="0" devices="tripinfo_S2N_43" vType="ego_car" speedFactor="1.09" vaporized=""/>
    <tripinfo id="S2N_45" depart="62.00" departLane="SN_0" departPos="5.00" departSpeed="10.00" departDelay="0.00" arrival="106.00" arrivalLane="-NS_0" arrivalPos="250.00" arrivalSpeed="19.63" duration="44.00" routeLength="509.40" waitingTime="0.00" waitingCount="0" stopTime="0.00" timeLoss="18.37" rerouteNo="0" devices="tripinfo_S2N_45" vType="ego_car" speedFactor="1.04" vaporized=""/>
    <tripinfo id="N2S_63" depart="81.00" departLane="NS_0" departPos="5.00" departSpeed="10.00" departDelay="0.00" arrival="108.00" arrivalLane="-SN_0" arrivalPos="250.00" arrivalSpeed="19.49" duration="27.00" routeLength="509.40" waitingTime="0.00" waitingCount="0" stopTime="0.00" timeLoss="1.03" rerouteNo="0" devices="tripinfo_N2S_63" vType="ego_car" speedFactor="1.02" vaporized=""/>
    <tripinfo id="S2N_49" depart="66.00" departLane="SN_0" departPos="5.00" departSpeed="10.00" departDelay="0.00" arrival="109.00" arrivalLane="-NS_0" arrivalPos="250.00" arrivalSpeed="17.42" duration="43.00" routeLength="509.40" waitingTime="0.00" waitingCount="0" stopTime="0.00" timeLoss="13.00" rerouteNo="0" devices="tripinfo_S2N_49" vType="ego_car" speedFactor="0.88" vaporized=""/>
    <tripinfo id="S2N_52" depart="71.00" departLane="SN_0" departPos="5.00" departSpeed="10.00" departDelay="0.00" arrival="110.00" arrivalLane="-NS_0" arrivalPos="250.00" arrivalSpeed="19.33" duration="39.00" routeLength="509.40" waitingTime="0.00" waitingCount="0" stopTime="0.00" timeLoss="13.39" rerouteNo="0" devices="tripinfo_S2N_52" vType="ego_car" speedFactor="1.17" vaporized=""/>
    <tripinfo id="N2S_64" depart="82.00" departLane="NS_0" departPos="5.00" departSpeed="10.00" departDelay="0.00" arrival="110.00" arrivalLane="-SN_0" arrivalPos="250.00" arrivalSpeed="19.44" duration="28.00" routeLength="509.40" waitingTime="0.00" waitingCount="0" stopTime="0.00" timeLoss="1.70" rerouteNo="0" devices="tripinfo_N2S_64" vType="ego_car" speedFactor="0.99" vaporized=""/>
    <tripinfo id="S2N_53" depart="73.00" departLane="SN_0" departPos="5.00" departSpeed="10.00" departDelay="1.00" arrival="112.00" arrivalLane="-NS_0" arrivalPos="250.00" arrivalSpeed="19.42" duration="39.00" routeLength="509.40" waitingTime="0.00" waitingCount="0" stopTime="0.00" timeLoss="13.19" rerouteNo="0" devices="tripinfo_S2N_53" vType="ego_car" speedFactor="1.02" vaporized=""/>
    <tripinfo id="S2N_57" depart="75.00" departLane="SN_0" departPos="5.00" departSpeed="10.00" departDelay="0.00" arrival="114.00" arrivalLane="-NS_0" arrivalPos="250.00" arrivalSpeed="17.49" duration="39.00" routeLength="509.40" waitingTime="0.00" waitingCount="0" stopTime="0.00" timeLoss="10.40" rerouteNo="0" devices="tripinfo_S2N_57" vType="ego_car" speedFactor="0.90" vaporized=""/>
    <tripinfo id="E2W_33" depart="51.00" departLane="EW_0" departPos="5.00" departSpeed="10.00" departDelay="0.00" arrival="118.00" arrivalLane="-WE_0" arrivalPos="250.00" arrivalSpeed="19.67" duration="67.00" routeLength="509.40" waitingTime="32.00" waitingCount="1" stopTime="0.00" timeLoss="41.22" rerouteNo="0" devices="tripinfo_E2W_33" vType="ego_car" speedFactor="1.01" vaporized=""/>
    <tripinfo id="W2E_42" depart="58.00" departLane="WE_0" departPos="5.00" departSpeed="10.00" departDelay="0.00" arrival="119.00" arrivalLane="-EW_0" arrivalPos="250.00" arrivalSpeed="18.58" duration="61.00" routeLength="509.40" waitingTime="26.00" waitingCount="1" stopTime="0.00" timeLoss="33.51" rerouteNo="0" devices="tripinfo_W2E_42" vType="ego_car" speedFactor="0.96" vaporized=""/>
    <tripinfo id="E2W_38" depart="53.00" departLane="EW_0" departPos="5.00" departSpeed="10.00" departDelay="0.00" arrival="120.00" arrivalLane="-WE_0" arrivalPos="250.00" arrivalSpeed="19.89" duration="67.00" routeLength="509.40" waitingTime="29.00" waitingCount="1" stopTime="0.00" timeLoss="41.05" rerouteNo="0" devices="tripinfo_E2W_38" vType="ego_car" speedFactor="1.18" vaporized=""/>
    <tripinfo id="W2E_48" depart="66.00" departLane="WE_0" departPos="5.00" departSpeed="10.00" departDelay="0.00" arrival="121.00" arrivalLane="-EW_0" arrivalPos="250.00" arrivalSpeed="17.78" duration="55.00" routeLength="509.40" waitingTime="16.00" waitingCount="1" stopTime="0.00" timeLoss="26.25" rerouteNo="0" devices="tripinfo_W2E_48" vType="ego_car" speedFactor="0.90" vaporized=""/>
    <tripinfo id="E2W_54" depart="73.00" departLane="EW_0" departPos="5.00" departSpeed="10.00" departDelay="0.00" arrival="122.00" arrivalLane="-WE_0" arrivalPos="250.00" arrivalSpeed="19.76" duration="49.00" routeLength="509.40" waitingTime="11.00" waitingCount="1" stopTime="0.00" timeLoss="22.92" rerouteNo="0" devices="tripinfo_E2W_54" vType="ego_car" speedFactor="1.10" vaporized=""/>
    <tripinfo id="W2E_51" depart="71.00" departLane="WE_0" departPos="5.00" departSpeed="10.00" departDelay="0.00" arrival="123.00" arrivalLane="-EW_0" arrivalPos="250.00" arrivalSpeed="16.74" duration="52.00" routeLength="509.40" waitingTime="11.00" waitingCount="1" stopTime="0.00" timeLoss="22.00" rerouteNo="0" devices="tripinfo_W2E_51" vType="ego_car" speedFactor="0.85" vaporized=""/>
    <tripinfo id="E2W_56" depart="75.00" departLane="EW_0" departPos="5.00" departSpeed="10.00" departDelay="1.00" arrival="124.00" arrivalLane="-WE_0" arrivalPos="250.00" arrivalSpeed="19.90" duration="49.00" routeLength="509.40" waitingTime="9.00" waitingCount="1" stopTime="0.00" timeLoss="22.68" rerouteNo="0" devices="tripinfo_E2W_56" vType="ego_car" speedFactor="1.00" vaporized=""/>
    <tripinfo id="W2E_59" depart="78.00" departLane="WE_0" departPos="5.00" departSpeed="10.00" departDelay="0.00" arrival="125.00" arrivalLane="-EW_0" arrivalPos="250.00" arrivalSpeed="19.90" duration="47.00" routeLength="509.40" waitingTime="7.00" waitingCount="1" stopTime="0.00" timeLoss="20.96" rerouteNo="0" devices="tripinfo_W2E_59" vType="ego_car" speedFactor="1.02" vaporized=""/>
    <tripinfo id="E2W_67" depart="89.00" departLane="EW_0" departPos="5.00" departSpeed="10.00" departDelay="0.00" arrival="126.00" arrivalLane="-WE_0" arrivalPos="250.00" arrivalSpeed="17.75" duration="37.00" routeLength="509.40" waitingTime="0.00" waitingCount="0" stopTime="0.00" timeLoss="8.52" rerouteNo="0" devices="tripinfo_E2W_67" vType="ego_car" speedFactor="0.91" vaporized=""/>
    <tripinfo id="W2E_60" depart="80.00" departLane="WE_0" departPos="5.00" departSpeed="10.00" departDelay="0.00" arrival="127.00" arrivalLane="-EW_0" arrivalPos="250.00" arrivalSpeed="19.17" duration="47.00" routeLength="509.40" waitingTime="5.00" waitingCount="1" stopTime="0.00" timeLoss="20.08" rerouteNo="0" devices="tripinfo_W2E_60" vType="ego_car" speedFactor="0.97" vaporized=""/>
    <tripinfo id="E2W_68" depart="90.00" departLane="EW_0" departPos="5.00" departSpeed="10.00" departDelay="0.00" arrival="128.00" arrivalLane="-WE_0" arrivalPos="250.00" arrivalSpeed="17.73" duration="38.00" routeLength="509.40" waitingTime="0.00" waitingCount="0" stopTime="0.00" timeLoss="9.69" rerouteNo="0" devices="tripinfo_E2W_68" vType="ego_car" speedFactor="0.91" vaporized=""/>
    <tripinfo id="W2E_65" depart="83.00" departLane="WE_0" departPos="5.00" departSpeed="10.00" departDelay="0.00" arrival="129.00" arrivalLane="-EW_0" arrivalPos="250.00" arrivalSpeed="18.18" duration="46.00" routeLength="509.40" waitingTime="2.00" waitingCount="1" stopTime="0.00" timeLoss="18.09" rerouteNo="0" devices="tripinfo_W2E_65" vType="ego_car" speedFactor="0.94" vaporized=""/>
    <tripinfo id="E2W_69" depart="92.00" departLane="EW_0" departPos="5.00" departSpeed="10.00" departDelay="2.00" arrival="130.00" arrivalLane="-WE_0" arrivalPos="250.00" arrivalSpeed="19.55" duration="38.00" routeLength="509.40" waitingTime="0.00" waitingCount="0" stopTime="0.00" timeLoss="11.83" rerouteNo="0" devices="tripinfo_E2W_69" vType="ego_car" speedFactor="1.04" vaporized=""/>
    <tripinfo id="W2E_70" depart="90.00" departLane="WE_0" departPos="5.00" departSpeed="10.00" departDelay="0.00" arrival="131.00" arrivalLane="-EW_0" arrivalPos="250.00" arrivalSpeed="19.41" duration="41.00" routeLength="509.40" waitingTime="0.00" waitingCount="0" stopTime="0.00" timeLoss="14.59" rerouteNo="0" devices="tripinfo_W2E_70" vType="ego_car" speedFactor="1.02" vaporized=""/>
    <tripinfo id="W2E_71" depart="91.00" departLane="WE_0" departPos="5.00" departSpeed="10.00" departDelay="1.00" arrival="132.00" arrivalLane="-EW_0" arrivalPos="250.00" arrivalSpeed="19.62" duration="41.00" routeLength="509.40" waitingTime="0.00" waitingCount="0" stopTime="0.00" timeLoss="15.39" rerouteNo="0" devices="tripinfo_W2E_71" vType="ego_car" speedFactor="1.02" vaporized=""/>
    <tripinfo id="E2W_74" depart="94.00" departLane="EW_0" departPos="5.00" departSpeed="10.00" departDelay="2.00" arrival="132.00" arrivalLane="-WE_0" arrivalPos="250.00" arrivalSpeed="19.80" duration="38.00" routeLength="509.40" waitingTime="0.00" waitingCount="0" stopTime="0.00" timeLoss="11.66" rerouteNo="0" devices="tripinfo_E2W_74" vType="ego_car" speedFactor="1.06" vaporized=""/>
    <tripinfo id="E2W_76" depart="95.00" departLane="EW_0" departPos="5.00" departSpeed="10.00" departDelay="2.00" arrival="133.00" arrivalLane="-WE_0" arrivalPos="250.00" arrivalSpeed="19.52" duration="38.00" routeLength="509.40" waitingTime="0.00" waitingCount="0" stopTime="0.00" timeLoss="12.11" rerouteNo="0" devices="tripinfo_E2W_76" vType="ego_car" speedFactor="0.98" vaporized=""/>
    <tripinfo id="W2E_72" depart="93.00" departLane="WE_0" departPos="5.00" departSpeed="10.00" departDelay="2.00" arrival="134.00" arrivalLane="-EW_0" arrivalPos="250.00" arrivalSpeed="19.31" duration="41.00" routeLength="509.40" waitingTime="0.00" waitingCount="0" stopTime="0.00" timeLoss="14.52" rerouteNo="0" devices="tripinfo_W2E_72" vType="ego_car" speedFactor="0.97" vaporized=""/>
    <tripinfo id="E2W_77" depart="97.00" departLane="EW_0" departPos="5.00" departSpeed="10.00" departDelay="2.00" arrival="135.00" arrivalLane="-WE_0" arrivalPos="250.00" arrivalSpeed="19.69" duration="38.00" routeLength="509.40" waitingTime="0.00" waitingCount="0" stopTime="0.00" timeLoss="12.30" rerouteNo="0" devices="tripinfo_E2W_77" vType="ego_car" speedFactor="1.03" vaporized=""/>
    <tripinfo id="W2E_78" depart="97.00" departLane="WE_0" departPos="5.00" departSpeed="10.00" departDelay="0.00" arrival="136.00" arrivalLane="-EW_0" arrivalPos="250.00" arrivalSpeed="19.46" duration="39.00" routeLength="509.40" waitingTime="0.00" waitingCount="0" stopTime="0.00" timeLoss="12.57" rerouteNo="0" devices="tripinfo_W2E_78" vType="ego_car" speedFactor="0.98" vaporized=""/>
    <tripinfo id="E2W_81" depart="99.00" departLane="EW_0" departPos="5.00" departSpeed="10.00" departDelay="0.00" arrival="137.00" arrivalLane="-WE_0" arrivalPos="250.00" arrivalSpeed="19.51" duration="38.00" routeLength="509.40" waitingTime="0.00" waitingCount="0" stopTime="0.00" timeLoss="12.15" rerouteNo="0" devices="tripinfo_E2W_81" vType="ego_car" speedFactor="1.03" vaporized=""/>
    <tripinfo id="W2E_80" depart="98.00" departLane="WE_0" departPos="5.00" departSpeed="10.00" departDelay="0.00" arrival="138.00" arrivalLane="-EW_0" arrivalPos="250.00" arrivalSpeed="19.91" duration="40.00" routeLength="509.40" waitingTime="0.00" waitingCount="0" stopTime="0.00" timeLoss="13.83" rerouteNo="0" devices="tripinfo_W2E_80" vType="ego_car" speedFactor="1.09" vaporized=""/>