<?xml version="1.0" encoding="UTF-8"?>

<!-- generated on 2022-09-01 19:19:31 by Eclipse SUMO sumo Version 1.13.0
<configuration xmlns:xsi="http://www.w3.org/2001/XMLSchema-instance" xsi:noNamespaceSchemaLocation="http://sumo.dlr.de/xsd/sumoConfiguration.xsd">

    <input>
        <net-file value="/home/pc10/sumo_workplace/TD3/uniform_rou_net/intersection.net.xml"/>
        <route-files value="/home/pc10/sumo_workplace/TD3/uniform_rou_net/intersection1.rou.xml"/>
    </input>

    <output>
        <tripinfo-output value="/home/pc10/sumo_workplace/TD3/uniform_rou_net/tripinfo.xml"/>
    </output>

    <time>
        <begin value="0"/>
        <end value="3600"/>
        <step-length value="1"/>
    </time>

    <processing>
        <waiting-time-memory value="3600"/>
    </processing>

    <report>
        <no-step-log value="true"/>
    </report>

    <traci_server>
        <remote-port value="42973"/>
    </traci_server>

    <gui_only>
        <tracker-interval value="1"/>
    </gui_only>

</configuration>
-->

<tripinfos xmlns:xsi="http://www.w3.org/2001/XMLSchema-instance" xsi:noNamespaceSchemaLocation="http://sumo.dlr.de/xsd/tripinfo_file.xsd">
    <tripinfo id="S2N_1" depart="0.00" departLane="SN_0" departPos="5.00" departSpeed="10.00" departDelay="0.00" arrival="37.00" arrivalLane="-NS_0" arrivalPos="250.00" arrivalSpeed="13.80" duration="37.00" routeLength="509.40" waitingTime="0.00" waitingCount="0" stopTime="0.00" timeLoss="11.09" rerouteNo="0" devices="tripinfo_S2N_1" vType="ego_car" speedFactor="1.06" vaporized=""/>
    <tripinfo id="N2S_2" depart="2.00" departLane="NS_0" departPos="5.00" departSpeed="10.00" departDelay="0.00" arrival="38.00" arrivalLane="-SN_0" arrivalPos="250.00" arrivalSpeed="13.80" duration="36.00" routeLength="509.40" waitingTime="0.00" waitingCount="0" stopTime="0.00" timeLoss="8.72" rerouteNo="0" devices="tripinfo_N2S_2" vType="ego_car" speedFactor="0.94" vaporized=""/>
    <tripinfo id="S2N_3" depart="6.00" departLane="SN_0" departPos="5.00" departSpeed="10.00" departDelay="0.00" arrival="42.00" arrivalLane="-NS_0" arrivalPos="250.00" arrivalSpeed="13.76" duration="36.00" routeLength="509.40" waitingTime="0.00" waitingCount="0" stopTime="0.00" timeLoss="10.34" rerouteNo="0" devices="tripinfo_S2N_3" vType="ego_car" speedFactor="1.01" vaporized=""/>
    <tripinfo id="N2S_4" depart="8.00" departLane="NS_0" departPos="5.00" departSpeed="10.00" departDelay="0.00" arrival="44.00" arrivalLane="-SN_0" arrivalPos="250.00" arrivalSpeed="13.77" duration="36.00" routeLength="509.40" waitingTime="0.00" waitingCount="0" stopTime="0.00" timeLoss="10.08" rerouteNo="0" devices="tripinfo_N2S_4" vType="ego_car" speedFactor="1.08" vaporized=""/>
    <tripinfo id="S2N_5" depart="12.00" departLane="SN_0" departPos="5.00" departSpeed="10.00" departDelay="0.00" arrival="47.00" arrivalLane="-NS_0" arrivalPos="250.00" arrivalSpeed="13.75" duration="35.00" routeLength="509.40" waitingTime="0.00" waitingCount="0" stopTime="0.00" timeLoss="9.39" rerouteNo="0" devices="tripinfo_S2N_5" vType="ego_car" speedFactor="1.03" vaporized=""/>
    <tripinfo id="N2S_6" depart="14.00" departLane="NS_0" departPos="5.00" departSpeed="10.00" departDelay="0.00" arrival="49.00" arrivalLane="-SN_0" arrivalPos="250.00" arrivalSpeed="13.75" duration="35.00" routeLength="509.40" waitingTime="0.00" waitingCount="0" stopTime="0.00" timeLoss="4.12" rerouteNo="0" devices="tripinfo_N2S_6" vType="ego_car" speedFactor="0.83" vaporized=""/>
    <tripinfo id="N2S_8" depart="20.00" departLane="NS_0" departPos="5.00" departSpeed="10.00" departDelay="0.00" arrival="91.00" arrivalLane="-SN_0" arrivalPos="250.00" arrivalSpeed="13.79" duration="71.00" routeLength="509.40" waitingTime="0.00" waitingCount="0" stopTime="0.00" timeLoss="42.09" rerouteNo="0" devices="tripinfo_N2S_8" vType="ego_car" speedFactor="0.89" vaporized=""/>
    <tripinfo id="S2N_7" depart="18.00" departLane="SN_0" departPos="5.00" departSpeed="10.00" departDelay="0.00" arrival="92.00" arrivalLane="-NS_0" arrivalPos="250.00" arrivalSpeed="13.79" duration="74.00" routeLength="509.40" waitingTime="0.00" waitingCount="0" stopTime="0.00" timeLoss="47.92" rerouteNo="0" devices="tripinfo_S2N_7" vType="ego_car" speedFactor="1.05" vaporized=""/>
    <tripinfo id="N2S_10" depart="26.00" departLane="NS_0" departPos="5.00" departSpeed="10.00" departDelay="0.00" arrival="94.00" arrivalLane="-SN_0" arrivalPos="250.00" arrivalSpeed="13.61" duration="68.00" routeLength="509.40" waitingTime="0.00" waitingCount="0" stopTime="0.00" timeLoss="38.28" rerouteNo="0" devices="tripinfo_N2S_10" vType="ego_car" speedFactor="0.86" vaporized=""/>
    <tripinfo id="S2N_9" depart="24.00" departLane="SN_0" departPos="5.00" departSpeed="10.00" departDelay="0.00" arrival="95.00" arrivalLane="-NS_0" arrivalPos="250.00" arrivalSpeed="13.61" duration="71.00" routeLength="509.40" waitingTime="0.00" waitingCount="0" stopTime="0.00" timeLoss="43.32" rerouteNo="0" devices="tripinfo_S2N_9" vType="ego_car" speedFactor="0.94" vaporized=""/>
    <tripinfo id="S2N_11" depart="30.00" departLane="SN_0" departPos="5.00" departSpeed="10.00" departDelay="0.00" arrival="97.00" arrivalLane="-NS_0" arrivalPos="250.00" arrivalSpeed="13.37" duration="67.00" routeLength="509.40" waitingTime="0.00" waitingCount="0" stopTime="0.00" timeLoss="41.34" rerouteNo="0" devices="tripinfo_S2N_11" vType="ego_car" speedFactor="1.09" vaporized=""/>
    <tripinfo id="N2S_12" depart="32.00" departLane="NS_0" departPos="5.00" departSpeed="10.00" departDelay="0.00" arrival="97.00" arrivalLane="-SN_0" arrivalPos="250.00" arrivalSpeed="13.50" duration="65.00" routeLength="509.40" waitingTime="0.00" waitingCount="0" stopTime="0.00" timeLoss="39.17" rerouteNo="0" devices="tripinfo_N2S_12" vType="ego_car" speedFactor="1.03" vaporized=""/>
    <tripinfo id="N2S_14" depart="38.00" departLane="NS_0" departPos="5.00" departSpeed="10.00" departDelay="0.00" arrival="99.00" arrivalLane="-SN_0" arrivalPos="250.00" arrivalSpeed="13.30" duration="61.00" routeLength="509.40" waitingTime="0.00" waitingCount="0" stopTime="0.00" timeLoss="35.41" rerouteNo="0" devices="tripinfo_N2S_14" vType="ego_car" speedFactor="1.12" vaporized=""/>
    <tripinfo id="S2N_13" depart="36.00" departLane="SN_0" departPos="5.00" departSpeed="10.00" departDelay="0.00" arrival="100.00" arrivalLane="-NS_0" arrivalPos="250.00" arrivalSpeed="13.42" duration="64.00" routeLength="509.40" waitingTime="0.00" waitingCount="0" stopTime="0.00" timeLoss="37.93" rerouteNo="0" devices="tripinfo_S2N_13" vType="ego_car" speedFactor="1.05" vaporized=""/>
    <tripinfo id="S2N_15" depart="42.00" departLane="SN_0" departPos="5.00" departSpeed="10.00" departDelay="0.00" arrival="102.00" arrivalLane="-NS_0" arrivalPos="250.00" arrivalSpeed="13.27" duration="60.00" routeLength="509.40" waitingTime="0.00" waitingCount="0" stopTime="0.00" timeLoss="33.95" rerouteNo="0" devices="tripinfo_S2N_15" vType="ego_car" speedFactor="0.99" vaporized=""/>
    <tripinfo id="N2S_16" depart="44.00" departLane="NS_0" departPos="5.00" departSpeed="10.00" departDelay="0.00" arrival="102.00" arrivalLane="-SN_0" arrivalPos="250.00" arrivalSpeed="13.39" duration="58.00" routeLength="509.40" waitingTime="0.00" waitingCount="0" stopTime="0.00" timeLoss="29.90" rerouteNo="0" devices="tripinfo_N2S_16" vType="ego_car" speedFactor="0.93" vaporized=""/>
    <tripinfo id="S2N_17" depart="48.00" departLane="SN_0" departPos="5.00" departSpeed="10.00" departDelay="0.00" arrival="104.00" arrivalLane="-NS_0" arrivalPos="250.00" arrivalSpeed="13.22" duration="56.00" routeLength="509.40" waitingTime="0.00" waitingCount="0" stopTime="0.00" timeLoss="26.67" rerouteNo="0" devices="tripinfo_S2N_17" vType="ego_car" speedFactor="0.88" vaporized=""/>
    <tripinfo id="N2S_18" depart="50.00" departLane="NS_0" departPos="5.00" departSpeed="10.00" departDelay="0.00" arrival="104.00" arrivalLane="-SN_0" arrivalPos="250.00" arrivalSpeed="13.24" duration="54.00" routeLength="509.40" waitingTime="0.00" waitingCount="0" stopTime="0.00" timeLoss="26.55" rerouteNo="0" devices="tripinfo_N2S_18" vType="ego_car" speedFactor="0.94" vaporized=""/>
    <tripinfo id="S2N_19" depart="54.00" departLane="SN_0" departPos="5.00" departSpeed="10.00" departDelay="0.00" arrival="106.00" arrivalLane="-NS_0" arrivalPos="250.00" arrivalSpeed="13.22" duration="52.00" routeLength="509.40" waitingTime="0.00" waitingCount="0" stopTime="0.00" timeLoss="24.69" rerouteNo="0" devices="tripinfo_S2N_19" vType="ego_car" speedFactor="0.94" vaporized=""/>
    <tripinfo id="N2S_20" depart="56.00" departLane="NS_0" departPos="5.00" departSpeed="10.00" departDelay="0.00" arrival="106.00" arrivalLane="-SN_0" arrivalPos="250.00" arrivalSpeed="13.22" duration="50.00" routeLength="509.40" waitingTime="0.00" waitingCount="0" stopTime="0.00" timeLoss="24.29" rerouteNo="0" devices="tripinfo_N2S_20" vType="ego_car" speedFactor="1.16" vaporized=""/>
    <tripinfo id="N2S_22" depart="62.00" departLane="NS_0" departPos="5.00" departSpeed="10.00" departDelay="0.00" arrival="108.00" arrivalLane="-SN_0" arrivalPos="250.00" arrivalSpeed="13.20" duration="46.00" routeLength="509.40" waitingTime="0.00" waitingCount="0" stopTime="0.00" timeLoss="20.53" rerouteNo="0" devices="tripinfo_N2S_22" vType="ego_car" speedFactor="1.01" vaporized=""/>
    <tripinfo id="S2N_21" depart="60.00" departLane="SN_0" departPos="5.00" departSpeed="10.00" departDelay="0.00" arrival="109.00" arrivalLane="-NS_0" arrivalPos="250.00" arrivalSpeed="13.37" duration="49.00" routeLength="509.40" waitingTime="0.00" waitingCount="0" stopTime="0.00" timeLoss="23.05" rerouteNo="0" devices="tripinfo_S2N_21" vType="ego_car" speedFactor="1.02" vaporized=""/>
    <tripinfo id="S2N_23" depart="66.00" departLane="SN_0" departPos="5.00" departSpeed="10.00" departDelay="0.00" arrival="111.00" arrivalLane="-NS_0" arrivalPos="250.00" arrivalSpeed="13.24" duration="45.00" routeLength="509.40" waitingTime="0.00" waitingCount="0" stopTime="0.00" timeLoss="18.42" rerouteNo="0" devices="tripinfo_S2N_23" vType="ego_car" speedFactor="0.97" vaporized=""/>
    <tripinfo id="N2S_24" depart="68.00" departLane="NS_0" departPos="5.00" departSpeed="10.00" departDelay="0.00" arrival="111.00" arrivalLane="-SN_0" arrivalPos="250.00" arrivalSpeed="13.38" duration="43.00" routeLength="509.40" waitingTime="0.00" waitingCount="0" stopTime="0.00" timeLoss="13.88" rerouteNo="0" devices="tripinfo_N2S_24" vType="ego_car" speedFactor="0.89" vaporized=""/>
    <tripinfo id="S2N_25" depart="72.00" departLane="SN_0" departPos="5.00" departSpeed="10.00" departDelay="0.00" arrival="113.00" arrivalLane="-NS_0" arrivalPos="250.00" arrivalSpeed="13.19" duration="41.00" routeLength="509.40" waitingTime="0.00" waitingCount="0" stopTime="0.00" timeLoss="9.95" rerouteNo="0" devices="tripinfo_S2N_25" vType="ego_car" speedFactor="0.83" vaporized=""/>
    <tripinfo id="N2S_26" depart="74.00" departLane="NS_0" departPos="5.00" departSpeed="10.00" departDelay="0.00" arrival="114.00" arrivalLane="-SN_0" arrivalPos="250.00" arrivalSpeed="13.48" duration="40.00" routeLength="509.40" waitingTime="0.00" waitingCount="0" stopTime="0.00" timeLoss="10.27" rerouteNo="0" devices="tripinfo_N2S_26" vType="ego_car" speedFactor="0.87" vaporized=""/>
    <tripinfo id="S2N_27" depart="78.00" departLane="SN_0" departPos="5.00" departSpeed="10.00" departDelay="0.00" arrival="116.00" arrivalLane="-NS_0" arrivalPos="250.00" arrivalSpeed="13.46" duration="38.00" routeLength="509.40" waitingTime="0.00" waitingCount="0" stopTime="0.00" timeLoss="10.22" rerouteNo="0" devices="tripinfo_S2N_27" vType="ego_car" speedFactor="0.92" vaporized=""/>
    <tripinfo id="N2S_28" depart="80.00" departLane="NS_0" departPos="5.00" departSpeed="10.00" departDelay="0.00" arrival="117.00" arrivalLane="-SN_0" arrivalPos="250.00" arrivalSpeed="13.57" duration="37.00" routeLength="509.40" waitingTime="0.00" waitingCount="0" stopTime="0.00" timeLoss="10.11" rerouteNo="0" devices="tripinfo_N2S_28" vType="ego_car" speedFactor="0.95" vaporized=""/>
    <tripinfo id="S2N_29" depart="84.00" departLane="SN_0" departPos="5.00" departSpeed="10.00" departDelay="0.00" arrival="120.00" arrivalLane="-NS_0" arrivalPos="250.00" arrivalSpeed="13.61" duration="36.00" routeLength="509.40" waitingTime="0.00" waitingCount="0" stopTime="0.00" timeLoss="10.08" rerouteNo="0" devices="tripinfo_S2N_29" vType="ego_car" speedFactor="1.13" vaporized=""/>
    <tripinfo id="S2N_31" depart="90.00" departLane="SN_0" departPos="5.00" departSpeed="10.00" departDelay="0.00" arrival="159.00" arrivalLane="-NS_0" arrivalPos="250.00" arrivalSpeed="13.80" duration="69.00" routeLength="509.40" waitingTime="0.00" waitingCount="0" stopTime="0.00" timeLoss="43.01" rerouteNo="0" devices="tripinfo_S2N_31" vType="ego_car" speedFactor="1.18" vaporized=""/>
    <tripinfo id="N2S_30" depart="86.00" departLane="NS_0" departPos="5.00" departSpeed="10.00" departDelay="0.00" arrival="160.00" arrivalLane="-SN_0" arrivalPos="250.00" arrivalSpeed="13.79" duration="74.00" routeLength="509.40" waitingTime="0.00" waitingCount="0" stopTime="0.00" timeLoss="45.99" rerouteNo="0" devices="tripinfo_N2S_30" vType="ego_car" speedFactor="0.93" vaporized=""/>
    <tripinfo id="S2N_33" depart="96.00" departLane="SN_0" departPos="5.00" departSpeed="10.00" departDelay="0.00" arrival="162.00" arrivalLane="-NS_0" arrivalPos="250.00" arrivalSpeed="13.63" duration="66.00" routeLength="509.40" waitingTime="0.00" waitingCount="0" stopTime="0.00" timeLoss="40.30" rerouteNo="0" devices="tripinfo_S2N_33" vType="ego_car" speedFactor="1.01" vaporized=""/>
    <tripinfo id="N2S_32" depart="92.00" departLane="NS_0" departPos="5.00" departSpeed="10.00" departDelay="0.00" arrival="163.00" arrivalLane="-SN_0" arrivalPos="250.00" arrivalSpeed="13.61" duration="71.00" routeLength="509.40" waitingTime="0.00" waitingCount="0" stopTime="0.00" timeLoss="45.04" rerouteNo="0" devices="tripinfo_N2S_32" vType="ego_car" speedFactor="1.15" vaporized=""/>
    <tripinfo id="N2S_34" depart="98.00" departLane="NS_0" departPos="5.00" departSpeed="10.00" departDelay="0.00" arrival="165.00" arrivalLane="-SN_0" arrivalPos="250.00" arrivalSpeed="13.37" duration="67.00" routeLength="509.40" waitingTime="0.00" waitingCount="0" stopTime="0.00" timeLoss="41.34" rerouteNo="0" devices="tripinfo_N2S_34" vType="ego_car" speedFactor="1.17" vaporized=""/>
    <tripinfo id="S2N_35" depart="102.00" departLane="SN_0" departPos="5.00" departSpeed="10.00" departDelay="0.00" arrival="165.00" arrivalLane="-NS_0" arrivalPos="250.00" arrivalSpeed="13.50" duration="63.00" routeLength="509.40" waitingTime="0.00" waitingCount="0" stopTime="0.00" timeLoss="36.81" rerouteNo="0" devices="tripinfo_S2N_35" vType="ego_car" speedFactor="0.99" vaporized=""/>
    <tripinfo id="S2N_37" depart="108.00" departLane="SN_0" departPos="5.00" departSpeed="10.00" departDelay="0.00" arrival="167.00" arrivalLane="-NS_0" arrivalPos="250.00" arrivalSpeed="13.32" duration="59.00" routeLength="509.40" waitingTime="0.00" waitingCount="0" stopTime="0.00" timeLoss="32.52" rerouteNo="0" devices="tripinfo_S2N_37" vType="ego_car" speedFactor="0.97" vaporized=""/>
    <tripinfo id="N2S_36" depart="104.00" departLane="NS_0" departPos="5.00" departSpeed="10.00" departDelay="0.00" arrival="168.00" arrivalLane="-SN_0" arrivalPos="250.00" arrivalSpeed="13.42" duration="64.00" routeLength="509.40" waitingTime="0.00" waitingCount="0" stopTime="0.00" timeLoss="37.93" rerouteNo="0" devices="tripinfo_N2S_36" vType="ego_car" speedFactor="1.02" vaporized=""/>
    <tripinfo id="S2N_39" depart="114.00" departLane="SN_0" departPos="5.00" departSpeed="10.00" departDelay="0.00" arrival="169.00" arrivalLane="-NS_0" arrivalPos="250.00" arrivalSpeed="13.24" duration="55.00" routeLength="509.40" waitingTime="0.00" waitingCount="0" stopTime="0.00" timeLoss="29.47" rerouteNo="0" devices="tripinfo_S2N_39" vType="ego_car" speedFactor="1.10" vaporized=""/>
    <tripinfo id="N2S_38" depart="110.00" departLane="NS_0" departPos="5.00" departSpeed="10.00" departDelay="0.00" arrival="170.00" arrivalLane="-SN_0" arrivalPos="250.00" arrivalSpeed="13.27" duration="60.00" routeLength="509.40" waitingTime="0.00" waitingCount="0" stopTime="0.00" timeLoss="34.17" rerouteNo="0" devices="tripinfo_N2S_38" vType="ego_car" speedFactor="1.18" vaporized=""/>
    <tripinfo id="N2S_40" depart="116.00" departLane="NS_0" departPos="5.00" departSpeed="10.00" departDelay="0.00" arrival="172.00" arrivalLane="-SN_0" arrivalPos="250.00" arrivalSpeed="13.18" duration="56.00" routeLength="509.40" waitingTime="0.00" waitingCount="0" stopTime="0.00" timeLoss="27.34" rerouteNo="0" devices="tripinfo_N2S_40" vType="ego_car" speedFactor="0.90" vaporized=""/>
    <tripinfo id="S2N_41" depart="120.00" departLane="SN_0" departPos="5.00" departSpeed="10.00" departDelay="0.00" arrival="172.00" arrivalLane="-NS_0" arrivalPos="250.00" arrivalSpeed="13.39" duration="52.00" routeLength="509.40" waitingTime="0.00" waitingCount="0" stopTime="0.00" timeLoss="26.08" rerouteNo="0" devices="tripinfo_S2N_41" vType="ego_car" speedFactor="1.03" vaporized=""/>
    <tripinfo id="N2S_42" depart="122.00" departLane="NS_0" departPos="5.00" departSpeed="10.00" departDelay="0.00" arrival="174.00" arrivalLane="-SN_0" arrivalPos="250.00" arrivalSpeed="13.13" duration="52.00" routeLength="509.40" waitingTime="0.00" waitingCount="0" stopTime="0.00" timeLoss="25.15" rerouteNo="0" devices="tripinfo_N2S_42" vType="ego_car" speedFactor="0.96" vaporized=""/>
    <tripinfo id="S2N_43" depart="126.00" departLane="SN_0" departPos="5.00" departSpeed="10.00" departDelay="0.00" arrival="174.00" arrivalLane="-NS_0" arrivalPos="250.00" arrivalSpeed="13.19" duration="48.00" routeLength="509.40" waitingTime="0.00" waitingCount="0" stopTime="0.00" timeLoss="22.19" rerouteNo="0" devices="tripinfo_S2N_43" vType="ego_car" speedFactor="1.09" vaporized=""/>
    <tripinfo id="S2N_45" depart="132.00" departLane="SN_0" departPos="5.00" departSpeed="10.00" departDelay="0.00" arrival="176.00" arrivalLane="-NS_0" arrivalPos="250.00" arrivalSpeed="13.22" duration="44.00" routeLength="509.40" waitingTime="0.00" waitingCount="0" stopTime="0.00" timeLoss="18.44" rerouteNo="0" devices="tripinfo_S2N_45" vType="ego_car" speedFactor="1.04" vaporized=""/>
    <tripinfo id="N2S_44" depart="128.00" departLane="NS_0" departPos="5.00" departSpeed="10.00" departDelay="0.00" arrival="177.00" arrivalLane="-SN_0" arrivalPos="250.00" arrivalSpeed="13.35" duration="49.00" routeLength="509.40" waitingTime="0.00" waitingCount="0" stopTime="0.00" timeLoss="22.91" rerouteNo="0" devices="tripinfo_N2S_44" vType="ego_car" speedFactor="1.04" vaporized=""/>
    <tripinfo id="N2S_46" depart="134.00" departLane="NS_0" departPos="5.00" departSpeed="10.00" departDelay="0.00" arrival="179.00" arrivalLane="-SN_0" arrivalPos="250.00" arrivalSpeed="13.16" duration="45.00" routeLength="509.40" waitingTime="0.00" waitingCount="0" stopTime="0.00" timeLoss="19.00" rerouteNo="0" devices="tripinfo_N2S_46" vType="ego_car" speedFactor="1.09" vaporized=""/>
    <tripinfo id="S2N_47" depart="138.00" departLane="SN_0" departPos="5.00" departSpeed="10.00" departDelay="0.00" arrival="179.00" arrivalLane="-NS_0" arrivalPos="250.00" arrivalSpeed="13.38" duration="41.00" routeLength="509.40" waitingTime="0.00" waitingCount="0" stopTime="0.00" timeLoss="15.04" rerouteNo="0" devices="tripinfo_S2N_47" vType="ego_car" speedFactor="1.00" vaporized=""/>
    <tripinfo id="N2S_48" depart="140.00" departLane="NS_0" departPos="5.00" departSpeed="10.00" departDelay="0.00" arrival="181.00" arrivalLane="-SN_0" arrivalPos="250.00" arrivalSpeed="13.22" duration="41.00" routeLength="509.40" waitingTime="0.00" waitingCount="0" stopTime="0.00" timeLoss="12.51" rerouteNo="0" devices="tripinfo_N2S_48" vType="ego_car" speedFactor="0.90" vaporized=""/>
    <tripinfo id="S2N_49" depart="144.00" departLane="SN_0" departPos="5.00" departSpeed="10.00" departDelay="0.00" arrival="182.00" arrivalLane="-NS_0" arrivalPos="250.00" arrivalSpeed="13.53" duration="38.00" routeLength="509.40" waitingTime="0.00" waitingCount="0" stopTime="0.00" timeLoss="8.83" rerouteNo="0" devices="tripinfo_S2N_49" vType="ego_car" speedFactor="0.88" vaporized=""/>
    <tripinfo id="N2S_50" depart="146.00" departLane="NS_0" departPos="5.00" departSpeed="10.00" departDelay="0.00" arrival="184.00" arrivalLane="-SN_0" arrivalPos="250.00" arrivalSpeed="13.45" duration="38.00" routeLength="509.40" waitingTime="0.00" waitingCount="0" stopTime="0.00" timeLoss="7.92" rerouteNo="0" devices="tripinfo_N2S_50" vType="ego_car" speedFactor="0.85" vaporized=""/>
    <tripinfo id="S2N_51" depart="150.00" departLane="SN_0" departPos="5.00" departSpeed="10.00" departDelay="0.00" arrival="186.00" arrivalLane="-NS_0" arrivalPos="250.00" arrivalSpeed="13.66" duration="36.00" routeLength="509.40" waitingTime="0.00" waitingCount="0" stopTime="0.00" timeLoss="6.04" rerouteNo="0" devices="tripinfo_S2N_51" vType="ego_car" speedFactor="0.85" vaporized=""/>
    <tripinfo id="N2S_52" depart="152.00" departLane="NS_0" departPos="5.00" departSpeed="10.00" departDelay="0.00" arrival="188.00" arrivalLane="-SN_0" arrivalPos="250.00" arrivalSpeed="13.62" duration="36.00" routeLength="509.40" waitingTime="0.00" waitingCount="0" stopTime="0.00" timeLoss="10.03" rerouteNo="0" devices="tripinfo_N2S_52" vType="ego_car" speedFactor="1.17" vaporized=""/>
    <tripinfo id="S2N_53" depart="156.00" departLane="SN_0" departPos="5.00" departSpeed="10.00" departDelay="0.00" arrival="227.00" arrivalLane="-NS_0" arrivalPos="250.00" arrivalSpeed="13.79" duration="71.00" routeLength="509.40" waitingTime="0.00" waitingCount="0" stopTime="0.00" timeLoss="45.38" rerouteNo="0" devices="tripinfo_S2N_53" vType="ego_car" speedFactor="1.02" vaporized=""/>
    <tripinfo id="N2S_54" depart="158.00" departLane="NS_0" departPos="5.00" departSpeed="10.00" departDelay="0.00" arrival="227.00" arrivalLane="-SN_0" arrivalPos="250.00" arrivalSpeed="13.80" duration="69.00" routeLength="509.40" waitingTime="0.00" waitingCount="0" stopTime="0.00" timeLoss="43.01" rerouteNo="0" devices="tripinfo_N2S_54" vType="ego_car" speedFactor="1.10" vaporized=""/>
    <tripinfo id="S2N_55" depart="162.00" departLane="SN_0" departPos="5.00" departSpeed="10.00" departDelay="0.00" arrival="230.00" arrivalLane="-NS_0" arrivalPos="250.00" arrivalSpeed="13.61" duration="68.00" routeLength="509.40" waitingTime="0.00" waitingCount="0" stopTime="0.00" timeLoss="42.52" rerouteNo="0" devices="tripinfo_S2N_55" vType="ego_car" speedFactor="1.00" vaporized=""/>
    <tripinfo id="N2S_56" depart="164.00" departLane="NS_0" departPos="5.00" departSpeed="10.00" departDelay="0.00" arrival="230.00" arrivalLane="-SN_0" arrivalPos="250.00" arrivalSpeed="13.63" duration="66.00" routeLength="509.40" waitingTime="0.00" waitingCount="0" stopTime="0.00" timeLoss="40.20" rerouteNo="0" devices="tripinfo_N2S_56" vType="ego_car" speedFactor="1.00" vaporized=""/>
    <tripinfo id="S2N_57" depart="168.00" departLane="SN_0" departPos="5.00" departSpeed="10.00" departDelay="0.00" arrival="233.00" arrivalLane="-NS_0" arrivalPos="250.00" arrivalSpeed="13.50" duration="65.00" routeLength="509.40" waitingTime="0.00" waitingCount="0" stopTime="0.00" timeLoss="36.26" rerouteNo="0" devices="tripinfo_S2N_57" vType="ego_car" speedFactor="0.90" vaporized=""/>
    <tripinfo id="N2S_58" depart="170.00" departLane="NS_0" departPos="5.00" departSpeed="10.00" departDelay="0.00" arrival="233.00" arrivalLane="-SN_0" arrivalPos="250.00" arrivalSpeed="13.50" duration="63.00" routeLength="509.40" waitingTime="0.00" waitingCount="0" stopTime="0.00" timeLoss="36.95" rerouteNo="0" devices="tripinfo_N2S_58" vType="ego_car" speedFactor="1.14" vaporized=""/>
    <tripinfo id="S2N_59" depart="174.00" departLane="SN_0" departPos="5.00" departSpeed="10.00" departDelay="0.00" arrival="235.00" arrivalLane="-NS_0" arrivalPos="250.00" arrivalSpeed="13.31" duration="61.00" routeLength="509.40" waitingTime="0.00" waitingCount="0" stopTime="0.00" timeLoss="35.41" rerouteNo="0" devices="tripinfo_S2N_59" vType="ego_car" speedFactor="1.02" vaporized=""/>
    <tripinfo id="N2S_60" depart="176.00" departLane="NS_0" departPos="5.00" departSpeed="10.00" departDelay="0.00" arrival="235.00" arrivalLane="-SN_0" arrivalPos="250.00" arrivalSpeed="13.32" duration="59.00" routeLength="509.40" waitingTime="0.00" waitingCount="0" stopTime="0.00" timeLoss="32.42" rerouteNo="0" devices="tripinfo_N2S_60" vType="ego_car" speedFactor="0.97" vaporized=""/>
    <tripinfo id="N2S_62" depart="182.00" departLane="NS_0" departPos="5.00" departSpeed="10.00" departDelay="0.00" arrival="237.00" arrivalLane="-SN_0" arrivalPos="250.00" arrivalSpeed="13.24" duration="55.00" routeLength="509.40" waitingTime="0.00" waitingCount="0" stopTime="0.00" timeLoss="29.47" rerouteNo="0" devices="tripinfo_N2S_62" vType="ego_car" speedFactor="1.12" vaporized=""/>
    <tripinfo id="S2N_61" depart="180.00" departLane="SN_0" departPos="5.00" departSpeed="10.00" departDelay="0.00" arrival="238.00" arrivalLane="-NS_0" arrivalPos="250.00" arrivalSpeed="13.39" duration="58.00" routeLength="509.40" waitingTime="0.00" waitingCount="0" stopTime="0.00" timeLoss="31.96" rerouteNo="0" devices="tripinfo_S2N_61" vType="ego_car" speedFactor="1.08" vaporized=""/>
    <tripinfo id="S2N_63" depart="186.00" departLane="SN_0" departPos="5.00" departSpeed="10.00" departDelay="0.00" arrival="240.00" arrivalLane="-NS_0" arrivalPos="250.00" arrivalSpeed="13.22" duration="54.00" routeLength="509.40" waitingTime="0.00" waitingCount="0" stopTime="0.00" timeLoss="28.10" rerouteNo="0" devices="tripinfo_S2N_63" vType="ego_car" speedFactor="1.02" vaporized=""/>
    <tripinfo id="N2S_64" depart="188.00" departLane="NS_0" departPos="5.00" departSpeed="10.00" departDelay="0.00" arrival="240.00" arrivalLane="-SN_0" arrivalPos="250.00" arrivalSpeed="13.39" duration="52.00" routeLength="509.40" waitingTime="0.00" waitingCount="0" stopTime="0.00" timeLoss="25.74" rerouteNo="0" devices="tripinfo_N2S_64" vType="ego_car" speedFactor="0.99" vaporized=""/>
    <tripinfo id="S2N_65" depart="192.00" departLane="SN_0" departPos="5.00" departSpeed="10.00" departDelay="0.00" arrival="242.00" arrivalLane="-NS_0" arrivalPos="250.00" arrivalSpeed="13.22" duration="50.00" routeLength="509.40" waitingTime="0.00" waitingCount="0" stopTime="0.00" timeLoss="22.53" rerouteNo="0" devices="tripinfo_S2N_65" vType="ego_car" speedFactor="0.94" vaporized=""/>
    <tripinfo id="N2S_66" depart="194.00" departLane="NS_0" departPos="5.00" departSpeed="10.00" departDelay="0.00" arrival="242.00" arrivalLane="-SN_0" arrivalPos="250.00" arrivalSpeed="13.19" duration="48.00" routeLength="509.40" waitingTime="0.00" waitingCount="0" stopTime="0.00" timeLoss="18.75" rerouteNo="0" devices="tripinfo_N2S_66" vType="ego_car" speedFactor="0.88" vaporized=""/>
    <tripinfo id="S2N_67" depart="198.00" departLane="SN_0" departPos="5.00" departSpeed="10.00" departDelay="0.00" arrival="244.00" arrivalLane="-NS_0" arrivalPos="250.00" arrivalSpeed="13.20" duration="46.00" routeLength="509.40" waitingTime="0.00" waitingCount="0" stopTime="0.00" timeLoss="17.86" rerouteNo="0" devices="tripinfo_S2N_67" vType="ego_car" speedFactor="0.91" vaporized=""/>
    <tripinfo id="N2S_68" depart="200.00" departLane="NS_0" departPos="5.00" departSpeed="10.00" departDelay="0.00" arrival="244.00" arrivalLane="-SN_0" arrivalPos="250.00" arrivalSpeed="13.22" duration="44.00" routeLength="509.40" waitingTime="0.00" waitingCount="0" stopTime="0.00" timeLoss="16.06" rerouteNo="0" devices="tripinfo_N2S_68" vType="ego_car" speedFactor="0.91" vaporized=""/>
    <tripinfo id="S2N_69" depart="204.00" departLane="SN_0" departPos="5.00" departSpeed="10.00" departDelay="0.00" arrival="247.00" arrivalLane="-NS_0" arrivalPos="250.00" arrivalSpeed="13.37" duration="43.00" routeLength="509.40" waitingTime="0.00" waitingCount="0" stopTime="0.00" timeLoss="17.14" rerouteNo="0" devices="tripinfo_S2N_69" vType="ego_car" speedFactor="1.04" vaporized=""/>
    <tripinfo id="N2S_70" depart="206.00" departLane="NS_0" departPos="5.00" departSpeed="10.00" departDelay="0.00" arrival="247.00" arrivalLane="-SN_0" arrivalPos="250.00" arrivalSpeed="13.38" duration="41.00" routeLength="509.40" waitingTime="0.00" waitingCount="0" stopTime="0.00" timeLoss="15.11" rerouteNo="0" devices="tripinfo_N2S_70" vType="ego_car" speedFactor="1.02" vaporized=""/>
    <tripinfo id="S2N_71" depart="210.00" departLane="SN_0" departPos="5.00" departSpeed="10.00" departDelay="0.00" arrival="250.00" arrivalLane="-NS_0" arrivalPos="250.00" arrivalSpeed="13.46" duration="40.00" routeLength="509.40" waitingTime="0.00" waitingCount="0" stopTime="0.00" timeLoss="14.00" rerouteNo="0" devices="tripinfo_S2N_71" vType="ego_car" speedFactor="1.02" vaporized=""/>
    <tripinfo id="N2S_72" depart="212.00" departLane="NS_0" departPos="5.00" departSpeed="10.00" departDelay="0.00" arrival="250.00" arrivalLane="-SN_0" arrivalPos="250.00" arrivalSpeed="13.53" duration="38.00" routeLength="509.40" waitingTime="0.00" waitingCount="0" stopTime="0.00" timeLoss="11.71" rerouteNo="0" devices="tripinfo_N2S_72" vType="ego_car" speedFactor="0.97" vaporized=""/>
    <tripinfo id="S2N_73" depart="216.00" departLane="SN_0" departPos="5.00" departSpeed="10.00" departDelay="0.00" arrival="253.00" arrivalLane="-NS_0" arrivalPos="250.00" arrivalSpeed="13.56" duration="37.00" routeLength="509.40" waitingTime="0.00" waitingCount="0" stopTime="0.00" timeLoss="9.79" rerouteNo="0" devices="tripinfo_S2N_73" vType="ego_car" speedFactor="0.94" vaporized=""/>